 vasp.6.4.2 20Jul23 (build Apr 13 2026 09:14:55) complex                        
  
 executed on             LinuxIFC date 2026.05.08  11:17:23
 running    8 mpi-ranks, with    8 threads/rank, on    1 nodes
 distrk:  each k-point on    8 cores,    1 groups
 distr:  one band on NCORE=   1 cores,    8 groups


--------------------------------------------------------------------------------------------------------


 INCAR:
   SYSTEM = B.hR105 with PBE0/HSE06
   LHFCALC = .TRUE.
   HFSCREEN = 0.2
   ISMEAR = 1
   SIGMA = 0.2
   LREAL = A
   PREC = Normal
   PRECFOCK = Normal
   NKRED = 1
   NBANDS = 224
   NSIM = 4
   ALGO = Normal
   NELM = 15
   EDIFF = 1E-06
   NSW = 1
   ISIF = 3
   IBRION = 2
   POTIM = 0.25
   ISTART = 0
   LWAVE = F
   LCHARG = F

 POTCAR:   PAW_PBE B 06Sep2000                    
 POTCAR:   PAW_PBE B 06Sep2000                    
   VRHFIN =B: s2p1                                                                                  
   LEXCH  = PE                                                                                      
   EATOM  =    71.1810 eV,    5.2317 Ry                                                             
                                                                                                    
   TITEL  = PAW_PBE B 06Sep2000                                                                     
   LULTRA =        F    use ultrasoft PP ?                                                          
   IUNSCR =        0    unscreen: 0-lin 1-nonlin 2-no                                               
   RPACOR =     .000    partial core radius                                                         
   POMASS =   10.811; ZVAL   =    3.000    mass and valenz                                          
   RCORE  =    1.700    outmost cutoff radius                                                       
   RWIGS  =    1.710; RWIGS  =     .905    wigner-seitz radius (au A)                               
   ENMAX  =  318.606; ENMIN  =  238.954 eV                                                          
   ICORE  =        2    local potential                                                             
   LCOR   =        T    correct aug charges                                                         
   LPAW   =        T    paw PP                                                                      
   EAUG   =  535.514                                                                                
   DEXC   =     .000                                                                                
   RMAX   =    2.583    core radius for proj-oper                                                   
   RAUG   =    1.300    factor for augmentation sphere                                              
   RDEP   =    1.757    radius for radial grids                                                     
   QCUT   =   -4.839; QGAM   =    9.678    optimization parameters                                  
                                                                                                    
   Description                                                                                      
     l     E      TYP  RCUT    TYP  RCUT                                                            
     0   .000     23  1.500                                                                         
     0   .000     23  1.500                                                                         
     1   .000     23  1.700                                                                         
     1   .000     23  1.700                                                                         
     2   .000      7  1.700                                                                         
  local pseudopotential read in
  atomic valenz-charges read in
  non local Contribution for L=           0  read in
    real space projection operators read in
  non local Contribution for L=           0  read in
    real space projection operators read in
  non local Contribution for L=           1  read in
    real space projection operators read in
  non local Contribution for L=           1  read in
    real space projection operators read in
    PAW grid and wavefunctions read in
 
   number of l-projection  operators is LMAX  =           4
   number of lm-projection operators is LMMAX =           8
 
 Optimization of the real space projectors (new method)

 maximal supplied QI-value         = 22.11
 optimisation between [QCUT,QGAM] = [  9.07, 18.13] = [ 23.01, 92.04] Ry 
 Optimized for a Real-space Cutoff    1.46 Angstroem

   l    n(q)    QCUT    max X(q) W(low)/X(q) W(high)/X(q)  e(spline) 
   0      8     9.065     7.700    0.57E-04    0.84E-04    0.54E-07
   0      8     9.065    35.783    0.38E-03    0.69E-03    0.20E-06
   1      7     9.065     3.867    0.67E-04    0.14E-03    0.14E-06
   1      7     9.065    25.070    0.31E-03    0.17E-03    0.22E-06
 PAW_PBE B 06Sep2000                    :
 energy of atom  1       EATOM=  -71.1810
 kinetic energy error for atom=    0.0071 (will be added to EATOM!!)
 
 
 POSCAR: XYZ: B105
  positions in direct lattice
  velocities in cartesian coordinates
 exchange correlation table for  LEXCH =        8
   RHO(1)=    0.500       N(1)  =     2000
   RHO(2)=  100.500       N(2)  =     4000
 


--------------------------------------------------------------------------------------------------------


 ion  position               nearest neighbor table
   1  0.500  0.500  0.500-  17 1.71  20 1.71  18 1.71  19 1.71  16 1.71  21 1.71
   2  0.385  0.385  0.385-  11 1.72  10 1.72  12 1.72   5 1.75   6 1.75   4 1.75  17 1.84  18 1.84
                            16 1.84
   3  0.615  0.615  0.615-  14 1.72  13 1.72  15 1.72   8 1.75   7 1.75   9 1.75  20 1.84  19 1.84
                            21 1.84
   4  0.381  0.214  0.381-   2 1.75  24 1.76  23 1.76   5 1.82   6 1.82 104 1.83  96 1.83  10 1.87

   5  0.381  0.381  0.214-   2 1.75  22 1.76  24 1.76   4 1.82   6 1.82  94 1.83 103 1.83  11 1.87

   6  0.214  0.381  0.381-   2 1.75  22 1.76  23 1.76   5 1.82   4 1.82  95 1.83 105 1.83  12 1.87

   7  0.786  0.619  0.619-   3 1.75  27 1.76  26 1.76   8 1.82   9 1.82 101 1.83  99 1.83  13 1.87

   8  0.619  0.619  0.786-   3 1.75  25 1.76  27 1.76   7 1.82   9 1.82  97 1.83 100 1.83  14 1.87

   9  0.619  0.786  0.619-   3 1.75  25 1.76  26 1.76   8 1.82   7 1.82  98 1.83 102 1.83  15 1.87

  10  0.489  0.222  0.489-   2 1.72  92 1.78  84 1.78  18 1.83  17 1.83 104 1.85  96 1.85   4 1.87

  11  0.489  0.489  0.222-   2 1.72  82 1.78  91 1.78  16 1.83  18 1.83 103 1.85  94 1.85   5 1.87

  12  0.222  0.489  0.489-   2 1.72  83 1.78  93 1.78  16 1.83  17 1.83  95 1.85 105 1.85   6 1.87

  13  0.778  0.511  0.511-   3 1.72  89 1.78  87 1.78  21 1.83  20 1.83 101 1.85  99 1.85   7 1.87

  14  0.511  0.511  0.778-   3 1.72  88 1.78  85 1.78  19 1.83  21 1.83  97 1.85 100 1.85   8 1.87

  15  0.511  0.778  0.511-   3 1.72  86 1.78  90 1.78  19 1.83  20 1.83  98 1.85 102 1.85   9 1.87

  16  0.385  0.568  0.385-   1 1.71  82 1.75  93 1.75  12 1.83  11 1.83   2 1.84  17 1.99  18 1.99

  17  0.385  0.385  0.568-   1 1.71  83 1.75  92 1.75  10 1.83  12 1.83   2 1.84  16 1.99  18 1.99

  18  0.568  0.385  0.385-   1 1.71  91 1.75  84 1.75  10 1.83  11 1.83   2 1.84  17 1.99  16 1.99

  19  0.432  0.615  0.615-   1 1.71  85 1.75  90 1.75  15 1.83  14 1.83   3 1.84  20 1.99  21 1.99

  20  0.615  0.615  0.432-   1 1.71  86 1.75  89 1.75  15 1.83  13 1.83   3 1.84  19 1.99  21 1.99

  21  0.615  0.432  0.615-   1 1.71  88 1.75  87 1.75  13 1.83  14 1.83   3 1.84  20 1.99  19 1.99

  22  0.199  0.505  0.199-  34 1.69   6 1.76   5 1.76  28 1.81  94 1.82 105 1.82
  23  0.199  0.199  0.505-  35 1.69   6 1.76   4 1.76  29 1.81  95 1.82 104 1.82
  24  0.505  0.199  0.199-  36 1.69   4 1.76   5 1.76  30 1.81 103 1.82  96 1.82
  25  0.495  0.801  0.801-  37 1.69   9 1.76   8 1.76  31 1.81  97 1.82 102 1.82
  26  0.801  0.801  0.495-  38 1.69   9 1.76   7 1.76  32 1.81  98 1.82 101 1.82
  27  0.801  0.495  0.801-  39 1.69   7 1.76   8 1.76  33 1.81 100 1.82  99 1.82
  28  0.199  0.686  0.199-  46 1.62 105 1.73  94 1.73  93 1.77  82 1.77  22 1.81
  29  0.199  0.199  0.686-  47 1.62  95 1.73 104 1.73  83 1.77  92 1.77  23 1.81
  30  0.686  0.199  0.199-  48 1.62  96 1.73 103 1.73  84 1.77  91 1.77  24 1.81
  31  0.314  0.801  0.801-  49 1.62 102 1.73  97 1.73  90 1.77  85 1.77  25 1.81
  32  0.801  0.801  0.314-  50 1.62  98 1.73 101 1.73  86 1.77  89 1.77  26 1.81
  33  0.801  0.314  0.801-  51 1.62  99 1.73 100 1.73  87 1.77  88 1.77  27 1.81
  34  0.103  0.490  0.103-  22 1.69  40 1.76  70 1.82  81 1.82  69 1.83  58 1.83
  35  0.103  0.103  0.490-  23 1.69  41 1.76  71 1.82  80 1.82  59 1.83  68 1.83
  36  0.490  0.103  0.103-  24 1.69  42 1.76  79 1.82  72 1.82  60 1.83  67 1.83
  37  0.510  0.897  0.897-  25 1.69  43 1.76  73 1.82  78 1.82  66 1.83  61 1.83
  38  0.897  0.897  0.510-  26 1.69  44 1.76  74 1.82  77 1.82  62 1.83  65 1.83
  39  0.897  0.510  0.897-  27 1.69  45 1.76  76 1.82  75 1.82  63 1.83  64 1.83
  40  0.997  0.658  0.997-  81 1.75  70 1.75  34 1.76  63 1.77  64 1.77  57 1.80
  41  0.997  0.997  0.658-  71 1.75  80 1.75  35 1.76  62 1.77  65 1.77  56 1.80
  42  0.658  0.997  0.997-  72 1.75  79 1.75  36 1.76  66 1.77  61 1.77  55 1.80
  43  0.342  0.003  0.003-  78 1.75  73 1.75  37 1.76  60 1.77  67 1.77  54 1.80
  44  0.003  0.003  0.342-  74 1.75  77 1.75  38 1.76  59 1.77  68 1.77  53 1.80
  45  0.003  0.342  0.003-  75 1.75  76 1.75  39 1.76  69 1.77  58 1.77  52 1.80
  46  0.101  0.840  0.101-  28 1.62  54 1.74  53 1.74  49 1.76  50 1.76  57 1.77
  47  0.101  0.101  0.840-  29 1.62  52 1.74  54 1.74  49 1.76  51 1.76  56 1.77
  48  0.840  0.101  0.101-  30 1.62  52 1.74  53 1.74  51 1.76  50 1.76  55 1.77
  49  0.160  0.899  0.899-  31 1.62  57 1.74  56 1.74  46 1.76  47 1.76  54 1.77
  50  0.899  0.899  0.160-  32 1.62  55 1.74  57 1.74  46 1.76  48 1.76  53 1.77
  51  0.899  0.160  0.899-  33 1.62  55 1.74  56 1.74  48 1.76  47 1.76  52 1.77
  52  0.004  0.162  0.004-  53 1.71  54 1.71  48 1.74  47 1.74  51 1.77  45 1.80
  53  0.004  0.004  0.162-  52 1.71  54 1.71  46 1.74  48 1.74  50 1.77  44 1.80
  54  0.162  0.004  0.004-  53 1.71  52 1.71  46 1.74  47 1.74  49 1.77  43 1.80
  55  0.838  0.996  0.996-  56 1.71  57 1.71  51 1.74  50 1.74  48 1.77  42 1.80
  56  0.996  0.996  0.838-  55 1.71  57 1.71  49 1.74  51 1.74  47 1.77  41 1.80
  57  0.996  0.838  0.996-  56 1.71  55 1.71  49 1.74  50 1.74  46 1.77  40 1.80
  58  0.178  0.345  0.004-  45 1.77  67 1.81  34 1.83  75 1.86  70 1.87  69 1.90
  59  0.004  0.178  0.345-  44 1.77  69 1.81  35 1.83  74 1.86  71 1.87  68 1.90
  60  0.345  0.004  0.178-  43 1.77  68 1.81  36 1.83  73 1.86  72 1.87  67 1.90
  61  0.655  0.822  0.996-  42 1.77  64 1.81  37 1.83  72 1.86  73 1.87  66 1.90
  62  0.822  0.996  0.655-  41 1.77  66 1.81  38 1.83  71 1.86  74 1.87  65 1.90
  63  0.996  0.655  0.822-  40 1.77  65 1.81  39 1.83  70 1.86  75 1.87  64 1.90
  64  0.822  0.655  0.996-  40 1.77  61 1.81  39 1.83  81 1.86  76 1.87  63 1.90
  65  0.996  0.822  0.655-  41 1.77  63 1.81  38 1.83  80 1.86  77 1.87  62 1.90
  66  0.655  0.996  0.822-  42 1.77  62 1.81  37 1.83  79 1.86  78 1.87  61 1.90
  67  0.345  0.178  0.004-  43 1.77  58 1.81  36 1.83  78 1.86  79 1.87  60 1.90
  68  0.178  0.004  0.345-  44 1.77  60 1.81  35 1.83  77 1.86  80 1.87  59 1.90
  69  0.004  0.345  0.178-  45 1.77  59 1.81  34 1.83  76 1.86  81 1.87  58 1.90
  70  0.166  0.551  0.895-  85 1.69  40 1.75  75 1.77  34 1.82  63 1.86  58 1.87
  71  0.895  0.166  0.551-  87 1.69  41 1.75  74 1.77  35 1.82  62 1.86  59 1.87
  72  0.551  0.895  0.166-  86 1.69  42 1.75  73 1.77  36 1.82  61 1.86  60 1.87
  73  0.449  0.834  0.105-  82 1.69  43 1.75  72 1.77  37 1.82  60 1.86  61 1.87
  74  0.834  0.105  0.449-  84 1.69  44 1.75  71 1.77  38 1.82  59 1.86  62 1.87
  75  0.105  0.449  0.834-  83 1.69  45 1.75  70 1.77  39 1.82  58 1.86  63 1.87
  76  0.834  0.449  0.105-  91 1.69  45 1.75  81 1.77  39 1.82  69 1.86  64 1.87
  77  0.105  0.834  0.449-  93 1.69  44 1.75  80 1.77  38 1.82  68 1.86  65 1.87
  78  0.449  0.105  0.834-  92 1.69  43 1.75  79 1.77  37 1.82  67 1.86  66 1.87
  79  0.551  0.166  0.895-  88 1.69  42 1.75  78 1.77  36 1.82  66 1.86  67 1.87
  80  0.166  0.895  0.551-  90 1.69  41 1.75  77 1.77  35 1.82  65 1.86  68 1.87
  81  0.895  0.551  0.166-  89 1.69  40 1.75  76 1.77  34 1.82  64 1.86  69 1.87
  82  0.376  0.684  0.201-  73 1.69  16 1.75  28 1.77  11 1.78  94 1.82  93 1.91
  83  0.201  0.376  0.684-  75 1.69  17 1.75  29 1.77  12 1.78  95 1.82  92 1.91
  84  0.684  0.201  0.376-  74 1.69  18 1.75  30 1.77  10 1.78  96 1.82  91 1.91
  85  0.316  0.624  0.799-  70 1.69  19 1.75  31 1.77  14 1.78  97 1.82  90 1.91
  86  0.624  0.799  0.316-  72 1.69  20 1.75  32 1.77  15 1.78  98 1.82  89 1.91
  87  0.799  0.316  0.624-  71 1.69  21 1.75  33 1.77  13 1.78  99 1.82  88 1.91
  88  0.624  0.316  0.799-  79 1.69  21 1.75  33 1.77  14 1.78 100 1.82  87 1.91
  89  0.799  0.624  0.316-  81 1.69  20 1.75  32 1.77  13 1.78 101 1.82  86 1.91
  90  0.316  0.799  0.624-  80 1.69  19 1.75  31 1.77  15 1.78 102 1.82  85 1.91
  91  0.684  0.376  0.201-  76 1.69  18 1.75  30 1.77  11 1.78 103 1.82  84 1.91
  92  0.376  0.201  0.684-  78 1.69  17 1.75  29 1.77  10 1.78 104 1.82  83 1.91
  93  0.201  0.684  0.376-  77 1.69  16 1.75  28 1.77  12 1.78 105 1.82  82 1.91
  94  0.364  0.579  0.096-  97 1.68  28 1.73  82 1.82  22 1.82   5 1.83  11 1.85
  95  0.096  0.364  0.579-  99 1.68  29 1.73  83 1.82  23 1.82   6 1.83  12 1.85
  96  0.579  0.096  0.364-  98 1.68  30 1.73  84 1.82  24 1.82   4 1.83  10 1.85
  97  0.421  0.636  0.904-  94 1.68  31 1.73  85 1.82  25 1.82   8 1.83  14 1.85
  98  0.636  0.904  0.421-  96 1.68  32 1.73  86 1.82  26 1.82   9 1.83  15 1.85
  99  0.904  0.421  0.636-  95 1.68  33 1.73  87 1.82  27 1.82   7 1.83  13 1.85
 100  0.636  0.421  0.904- 103 1.68  33 1.73  88 1.82  27 1.82   8 1.83  14 1.85
 101  0.904  0.636  0.421- 105 1.68  32 1.73  89 1.82  26 1.82   7 1.83  13 1.85
 102  0.421  0.904  0.636- 104 1.68  31 1.73  90 1.82  25 1.82   9 1.83  15 1.85
 103  0.579  0.364  0.096- 100 1.68  30 1.73  91 1.82  24 1.82   5 1.83  11 1.85
 104  0.364  0.096  0.579- 102 1.68  29 1.73  92 1.82  23 1.82   4 1.83  10 1.85
 105  0.096  0.579  0.364- 101 1.68  28 1.73  93 1.82  22 1.82   6 1.83  12 1.85
 
  LATTYP: Found a trigonal (rhomboedric) cell.
 ALAT       =    10.0201724942
 COS(alpha) =     0.4118973393
  
  Lattice vectors:
  
 A1 = (   5.4335888388,   3.1370839786,   7.8127250851)
 A2 = (  -5.4335888388,   3.1370839786,   7.8127250851)
 A3 = (   0.0000000000,  -6.2741679571,   7.8127250851)


Analysis of symmetry for initial positions (statically):
=====================================================================
 Subroutine PRICEL returns:
 Original cell was already a primitive cell.
 

 Routine SETGRP: Setting up the symmetry group for a 
 trigonal (rhombohedral) supercell.


 Subroutine GETGRP returns: Found 12 space group operations
 (whereof 12 operations were pure point group operations)
 out of a pool of 12 trial point group operations.


The static configuration has the point symmetry D_3d.


Analysis of symmetry for dynamics (positions and initial velocities):
=====================================================================
 Subroutine PRICEL returns:
 Original cell was already a primitive cell.
 

 Routine SETGRP: Setting up the symmetry group for a 
 trigonal (rhombohedral) supercell.


 Subroutine GETGRP returns: Found 12 space group operations
 (whereof 12 operations were pure point group operations)
 out of a pool of 12 trial point group operations.


The dynamic configuration has the point symmetry D_3d.


 Subroutine INISYM returns: Found 12 space group operations
 (whereof 12 operations are pure point group operations),
 and found     1 'primitive' translations


----------------------------------------------------------------------------------------

                                     Primitive cell                                     

  volume of cell :     799.0367

  direct lattice vectors                    reciprocal lattice vectors
     5.433588839  3.137083979  7.812725085     0.092020213  0.053127895  0.042665437
    -5.433588839  3.137083979  7.812725085    -0.092020213  0.053127895  0.042665437
     0.000000000 -6.274167957  7.812725085     0.000000000 -0.106255789  0.042665437

  length of vectors
    10.020172494 10.020172494 10.020172494     0.114501669  0.114501669  0.114501669

  position of ions in fractional coordinates (direct lattice)
     0.500000000  0.500000000  0.500000000
     0.384692000  0.384692000  0.384692000
     0.615308000  0.615308000  0.615308000
     0.380676943  0.213546268  0.380676943
     0.380676943  0.380676943  0.213546268
     0.213546268  0.380676943  0.380676943
     0.786453732  0.619323057  0.619323057
     0.619323057  0.619323057  0.786453732
     0.619323057  0.786453732  0.619323057
     0.489301305  0.221774692  0.489301305
     0.489301305  0.489301305  0.221774692
     0.221774692  0.489301305  0.489301305
     0.778225308  0.510698695  0.510698695
     0.510698695  0.510698695  0.778225308
     0.510698695  0.778225308  0.510698695
     0.384886245  0.568076376  0.384886245
     0.384886245  0.384886245  0.568076376
     0.568076376  0.384886245  0.384886245
     0.431923624  0.615113755  0.615113755
     0.615113755  0.615113755  0.431923624
     0.615113755  0.431923624  0.615113755
     0.198982793  0.505244522  0.198982793
     0.198982793  0.198982793  0.505244522
     0.505244522  0.198982793  0.198982793
     0.494755478  0.801017207  0.801017207
     0.801017207  0.801017207  0.494755478
     0.801017207  0.494755478  0.801017207
     0.199243242  0.685727789  0.199243242
     0.199243242  0.199243242  0.685727789
     0.685727789  0.199243242  0.199243242
     0.314272211  0.800756758  0.800756758
     0.800756758  0.800756758  0.314272211
     0.800756758  0.314272211  0.800756758
     0.103440333  0.490178305  0.103440333
     0.103440333  0.103440333  0.490178305
     0.490178305  0.103440333  0.103440333
     0.509821695  0.896559667  0.896559667
     0.896559667  0.896559667  0.509821695
     0.896559667  0.509821695  0.896559667
     0.996731418  0.658303668  0.996731418
     0.996731418  0.996731418  0.658303668
     0.658303668  0.996731418  0.996731418
     0.341696332  0.003268582  0.003268582
     0.003268582  0.003268582  0.341696332
     0.003268582  0.341696332  0.003268582
     0.100577105  0.839937974  0.100577105
     0.100577105  0.100577105  0.839937974
     0.839937974  0.100577105  0.100577105
     0.160062026  0.899422895  0.899422895
     0.899422895  0.899422895  0.160062026
     0.899422895  0.160062026  0.899422895
     0.003830372  0.161611724  0.003830372
     0.003830372  0.003830372  0.161611724
     0.161611724  0.003830372  0.003830372
     0.838388276  0.996169628  0.996169628
     0.996169628  0.996169628  0.838388276
     0.996169628  0.838388276  0.996169628
     0.178385173  0.345384414  0.003854483
     0.003854483  0.178385173  0.345384414
     0.345384414  0.003854483  0.178385173
     0.654615586  0.821614827  0.996145517
     0.821614827  0.996145517  0.654615586
     0.996145517  0.654615586  0.821614827
     0.821614827  0.654615586  0.996145517
     0.996145517  0.821614827  0.654615586
     0.654615586  0.996145517  0.821614827
     0.345384414  0.178385173  0.003854483
     0.178385173  0.003854483  0.345384414
     0.003854483  0.345384414  0.178385173
     0.165929179  0.550831001  0.895252520
     0.895252520  0.165929179  0.550831001
     0.550831001  0.895252520  0.165929179
     0.449168999  0.834070821  0.104747480
     0.834070821  0.104747480  0.449168999
     0.104747480  0.449168999  0.834070821
     0.834070821  0.449168999  0.104747480
     0.104747480  0.834070821  0.449168999
     0.449168999  0.104747480  0.834070821
     0.550831001  0.165929179  0.895252520
     0.165929179  0.895252520  0.550831001
     0.895252520  0.550831001  0.165929179
     0.375926433  0.683952474  0.200597086
     0.200597086  0.375926433  0.683952474
     0.683952474  0.200597086  0.375926433
     0.316047526  0.624073567  0.799402914
     0.624073567  0.799402914  0.316047526
     0.799402914  0.316047526  0.624073567
     0.624073567  0.316047526  0.799402914
     0.799402914  0.624073567  0.316047526
     0.316047526  0.799402914  0.624073567
     0.683952474  0.375926433  0.200597086
     0.375926433  0.200597086  0.683952474
     0.200597086  0.683952474  0.375926433
     0.364044622  0.579251374  0.096081144
     0.096081144  0.364044622  0.579251374
     0.579251374  0.096081144  0.364044622
     0.420748626  0.635955378  0.903918856
     0.635955378  0.903918856  0.420748626
     0.903918856  0.420748626  0.635955378
     0.635955378  0.420748626  0.903918856
     0.903918856  0.635955378  0.420748626
     0.420748626  0.903918856  0.635955378
     0.579251374  0.364044622  0.096081144
     0.364044622  0.096081144  0.579251374
     0.096081144  0.579251374  0.364044622

  ion indices of the primitive-cell ions
   primitive index   ion index
                 1           1
                 2           2
                 3           3
                 4           4
                 5           5
                 6           6
                 7           7
                 8           8
                 9           9
                10          10
                11          11
                12          12
                13          13
                14          14
                15          15
                16          16
                17          17
                18          18
                19          19
                20          20
                21          21
                22          22
                23          23
                24          24
                25          25
                26          26
                27          27
                28          28
                29          29
                30          30
                31          31
                32          32
                33          33
                34          34
                35          35
                36          36
                37          37
                38          38
                39          39
                40          40
                41          41
                42          42
                43          43
                44          44
                45          45
                46          46
                47          47
                48          48
                49          49
                50          50
                51          51
                52          52
                53          53
                54          54
                55          55
                56          56
                57          57
                58          58
                59          59
                60          60
                61          61
                62          62
                63          63
                64          64
                65          65
                66          66
                67          67
                68          68
                69          69
                70          70
                71          71
                72          72
                73          73
                74          74
                75          75
                76          76
                77          77
                78          78
                79          79
                80          80
                81          81
                82          82
                83          83
                84          84
                85          85
                86          86
                87          87
                88          88
                89          89
                90          90
                91          91
                92          92
                93          93
                94          94
                95          95
                96          96
                97          97
                98          98
                99          99
               100         100
               101         101
               102         102
               103         103
               104         104
               105         105

----------------------------------------------------------------------------------------

 
 
 KPOINTS: Automatic mesh                          

Automatic generation of k-mesh.
 Grid dimensions read from file:
 generate k-points for:    2    2    2

 Generating k-lattice:

  Cartesian coordinates                     Fractional coordinates (reciprocal lattice)
     0.046010106  0.026563947  0.021332719     0.500000000 -0.000000000  0.000000000
    -0.046010106  0.026563947  0.021332719    -0.000000000  0.500000000  0.000000000
     0.000000000 -0.053127895  0.021332719     0.000000000  0.000000000  0.500000000

  Length of vectors
     0.057250835  0.057250835  0.057250835

  Shift w.r.t. Gamma in fractional coordinates (k-lattice)
     0.500000000  0.500000000  0.500000000

 
 Subroutine IBZKPT returns following result:
 ===========================================
 
 Found      2 irreducible k-points:
 
 Following reciprocal coordinates:
            Coordinates               Weight
  0.250000  0.250000  0.250000      2.000000
 -0.250000  0.250000  0.250000      6.000000
 
 Following cartesian coordinates:
            Coordinates               Weight
  0.000000  0.000000  0.031999      2.000000
 -0.046010 -0.026564  0.010666      6.000000
 
 
 Subroutine IBZKPT_HF returns following result:
 ==============================================
 
 Found      8 k-points in 1st BZ
 the following      8 k-points will be used (e.g. in the exchange kernel)
 Following reciprocal coordinates:   # in IRBZ
  0.250000  0.250000  0.250000    0.12500000   1 t-inv F
 -0.250000  0.250000  0.250000    0.12500000   2 t-inv F
 -0.250000 -0.250000 -0.250000    0.12500000   1 t-inv F
  0.250000 -0.250000 -0.250000    0.12500000   2 t-inv F
  0.250000 -0.250000  0.250000    0.12500000   2 t-inv F
 -0.250000  0.250000 -0.250000    0.12500000   2 t-inv F
  0.250000  0.250000 -0.250000    0.12500000   2 t-inv F
 -0.250000 -0.250000  0.250000    0.12500000   2 t-inv F


--------------------------------------------------------------------------------------------------------




 Dimension of arrays:
   k-points           NKPTS =      2   k-points in BZ     NKDIM =      8   number of bands    NBANDS=    224
   number of dos      NEDOS =    301   number of ions     NIONS =    105
   non local maximal  LDIM  =      4   non local SUM 2l+1 LMDIM =      8
   total plane-waves  NPLWV = 110592
   max r-space proj   IRMAX =   1847   max aug-charges    IRDMAX=   2358
   dimension x,y,z NGX =    48 NGY =   48 NGZ =   48
   dimension x,y,z NGXF=    96 NGYF=   96 NGZF=   96
   support grid    NGXF=    96 NGYF=   96 NGZF=   96
   ions per type =             105
   NGX,Y,Z   is equivalent  to a cutoff of   7.96,  7.96,  7.96 a.u.
   NGXF,Y,Z  is equivalent  to a cutoff of  15.93, 15.93, 15.93 a.u.

 SYSTEM =  B.hR105 with PBE0/HSE06                 
 POSCAR =  XYZ: B105                               

 Startparameter for this run:
   NWRITE =      2    write-flag & timer
   PREC   = normal    normal or accurate (medium, high low for compatibility)
   ISTART =      0    job   : 0-new  1-cont  2-samecut
   ICHARG =      2    charge: 1-file 2-atom 10-const
   ISPIN  =      1    spin polarized calculation?
   LNONCOLLINEAR =      F non collinear calculations
   LSORBIT =      F    spin-orbit coupling
   INIWAV =      1    electr: 0-lowe 1-rand  2-diag
   LASPH  =      F    aspherical Exc in radial PAW
 Electronic Relaxation 1
   ENCUT  =  318.6 eV  23.42 Ry    4.84 a.u.  14.58 14.58 14.58*2*pi/ulx,y,z
   ENINI  =  318.6     initial cutoff
   ENAUG  =  535.5 eV  augmentation charge cutoff
   NELM   =     15;   NELMIN=  2; NELMDL= -5     # of ELM steps 
   EDIFF  = 0.1E-05   stopping-criterion for ELM
   LREAL  =      T    real-space projection
   NLSPLINE    = F    spline interpolate recip. space projectors
   LCOMPAT=      F    compatible to vasp.4.4
   GGA_COMPAT  = T    GGA compatible to vasp.4.4-vasp.4.6
   LMAXPAW     = -100 max onsite density
   LMAXMIX     =    2 max onsite mixed and CHGCAR
   VOSKOWN=      0    Vosko Wilk Nusair interpolation
   ROPT   =   -0.00050
 Ionic relaxation
   EDIFFG = 0.1E-04   stopping-criterion for IOM
   NSW    =      1    number of steps for IOM
   NBLOCK =      1;   KBLOCK =      1    inner block; outer block 
   IBRION =      2    ionic relax: 0-MD 1-quasi-New 2-CG
   NFREE  =      1    steps in history (QN), initial steepest desc. (CG)
   ISIF   =      3    stress and relaxation
   IWAVPR =     11    prediction:  0-non 1-charg 2-wave 3-comb
   ISYM   =      3    0-nonsym 1-usesym 2-fastsym
   LCORR  =      T    Harris-Foulkes like correction to forces

   POTIM  = 0.2500    time-step for ionic-motion
   TEIN   =    0.0    initial temperature
   TEBEG  =    0.0;   TEEND  =   0.0 temperature during run
   SMASS  =  -3.00    Nose mass-parameter (am)
   estimated Nose-frequenzy (Omega)   =  0.10E-29 period in steps = 0.25E+47 mass=  -0.229E-26a.u.
   SCALEE = 1.0000    scale energy and forces
   NPACO  =    256;   APACO  = 10.0  distance and # of slots for P.C.
   PSTRESS=    0.0 pullay stress

  Mass of Ions in am
   POMASS =  10.81
  Ionic Valenz
   ZVAL   =   3.00
  Atomic Wigner-Seitz radii
   RWIGS  =  -1.00
  virtual crystal weights 
   VCA    =   1.00
   NELECT =     315.0000    total number of electrons
   NUPDOWN=      -1.0000    fix difference up-down

 DOS related values:
   EMIN   =  10.00;   EMAX   =-10.00  energy-range for DOS
   EFERMI =   0.00;   METHOD = LEGACY      
   ISMEAR =     1;   SIGMA  =   0.20  broadening in eV -4-tet -1-fermi 0-gaus

 Electronic relaxation 2 (details)
   IALGO  =     38    algorithm
   LDIAG  =      T    sub-space diagonalisation (order eigenvalues)
   LSUBROT=      F    optimize rotation matrix (better conditioning)
   TURBO    =      0    0=normal 1=particle mesh
   IRESTART =      0    0=no restart 2=restart with 2 vectors
   NREBOOT  =      0    no. of reboots
   NMIN     =      0    reboot dimension
   EREF     =   0.00    reference energy to select bands
   IMIX   =      1    mixing-type and parameters
     AMIX     =   0.40;   BMIX     =  1.00
     AMIX_MAG =   1.60;   BMIX_MAG =  1.00
     AMIN     =   0.10
     WC   =   100.;   INIMIX=   1;  MIXPRE=   1;  MAXMIX= -45

 Intra band minimization:
   WEIMIN = 0.0010     energy-eigenvalue tresh-hold
   EBREAK =  0.11E-08  absolut break condition
   DEPER  =   0.30     relativ break condition  

   TIME   =   0.40     timestep for ELM

  volume/ion in A,a.u.               =       7.61        51.35
  Fermi-wavevector in a.u.,A,eV,Ry     =   1.200391  2.268410 19.605164  1.440939
  Thomas-Fermi vector in A             =   2.336228
 
 Write flags
   LWAVE        =      F    write WAVECAR
   LDOWNSAMPLE  =      F    k-point downsampling of WAVECAR
   LCHARG       =      F    write CHGCAR
   LVTOT        =      F    write LOCPOT, total local potential
   LVHAR        =      F    write LOCPOT, Hartree potential only
   LELF         =      F    write electronic localiz. function (ELF)
   LORBIT       =      0    0 simple, 1 ext, 2 COOP (PROOUT), +10 PAW based schemes


 Dipole corrections
   LMONO  =      F    monopole corrections only (constant potential shift)
   LDIPOL =      F    correct potential (dipole corrections)
   IDIPOL =      0    1-x, 2-y, 3-z, 4-all directions 
   EPSILON=  1.0000000 bulk dielectric constant

 Exchange correlation treatment:
   GGA     =    --    GGA type
   LEXCH   =     8    internal setting for exchange type
   LIBXC   =     F    Libxc                    
   VOSKOWN =     0    Vosko Wilk Nusair interpolation
   EXXOEP  =     0    0=HF, 1=EXX-LHF (local Hartree Fock) 2=EXX OEP
   LHFCALC =     T    Hartree Fock is set to
   LSYMGRAD=     F    symmetrize gradient (conserves proper symmetry)
   PRECFOCK=normal    Normal, Fast or Accurate (Low or Medium for compatibility)
   LRHFCALC=     F    long range Hartree Fock
   LRSCOR  =     F    long range correlation only (use DFT for short range part)
   LTHOMAS =     F    Thomas Fermi screening in HF
   LMODELHF=     F    short range full HF, long range fraction AEXX
   FOCKCORR=     1    mode to apply convergence corrections
   LFOCKACE=     T    use Adeptively-Compressed-Exchange operator
   ENCUT4O =  -1.0   cutoff for four orbital integrals eV
   LMAXFOCK=     4    L truncation for augmentation on plane wave grid
   LMAXFOCKAE=  -1    L truncation for all-electron charge restoration on plane wave grid
   NMAXFOCKAE=   1    number of basis functions for all-electron charge restoration
   LFOCKAEDFT=     F  apply the AE augmentation even for DFT
   NKREDX  =     1    reduce k-point grid by
   NKREDY  =     1    reduce k-point grid by
   NKREDZ  =     1    reduce k-point grid by
   SHIFTRED=     F    shift reduced grid of Gamma
   HFKIDENT=     F    idential grid for each k-point
   ODDONLY =     F    use only odd q-grid points
   EVENONLY=     F    use only even q-grid points
   HFALPHA =   -1.0000 decay constant for conv. correction
   MCALPHA =    0.0000 extent of test-charge in conv. correction in multipole expansion
   AEXX    =    0.2500 exact exchange contribution
   HFSCREEN=    0.2000 screening length (either q_TF or 0.3 A-1)
   HFSCREENC=   0.2000 screening length for correlation (either q_TF or 0.3 A-1)
   HFRCUT  =    0.0000 spherical cutoff for potential kernel
   ALDAX   =    0.7500 LDA exchange part
   AGGAX   =    0.7500 GGA exchange part
   ALDAC   =    1.0000 LDA correlation
   AGGAC   =    1.0000 GGA correlation
   ENCUTFOCK=  -1.0 apply spherical cutoff to Coloumb kernel
   NBANDSGWLOW=     1    first orbital included in HF term
   NBLOCK_FOCK=    64    blocking factor in FOCK_ACC

 Linear response parameters
   LEPSILON=     F    determine dielectric tensor
   LRPA    =     F    only Hartree local field effects (RPA)
   LNABLA  =     F    use nabla operator in PAW spheres
   LVEL    =     F    velocity operator in full k-point grid
   CSHIFT  =0.1000    complex shift for real part using Kramers Kronig
   OMEGAMAX=  -1.0    maximum frequency
   DEG_THRESHOLD= 0.2000000E-02 threshold for treating states as degnerate
   RTIME   =   -0.100 relaxation time in fs
  (WPLASMAI=    0.000 imaginary part of plasma frequency in eV, 0.658/RTIME)
   DFIELD  = 0.0000000 0.0000000 0.0000000 field for delta impulse in time
 
  Optional k-point grid parameters
   LKPOINTS_OPT  =     F    use optional k-point grid
   KPOINTS_OPT_MODE=     1    mode for optional k-point grid
 
 Orbital magnetization related:
   ORBITALMAG=     F  switch on orbital magnetization
   LCHIMAG   =     F  perturbation theory with respect to B field
   DQ        =  0.001000  dq finite difference perturbation B field
   LLRAUG    =     F  two centre corrections for induced B field
   LBONE     =     F  B-component reconstruction in AE one-centre
   LVGVCALC  =     T  calculate vGv susceptibility
   LVGVAPPL  =     F  apply vGv susceptibility instead of pGv for G=0

 Random number generation:
   RANDOM_GENERATOR = DEFAULT
   PCG_SEED         = not used


--------------------------------------------------------------------------------------------------------


 conjugate gradient relaxation of ions
 charge density and potential will be updated during run
 non-spin polarized calculation
 Variant of blocked Davidson
 Davidson routine will perform the subspace rotation
 perform sub-space diagonalisation
    after iterative eigenvector-optimisation
 Kerker-like  mixing scheme
 using additional bands           66
 real space projection scheme for non local part
 calculate Harris-corrections to forces 
   (improved forces if not selfconsistent)
 use gradient corrections 
 use of overlap-Matrix (Vanderbilt PP)
 Methfessel and Paxton  Order N= 1 SIGMA  =   0.20


--------------------------------------------------------------------------------------------------------


  energy-cutoff  :      318.61
  volume of cell :      799.04
      direct lattice vectors                 reciprocal lattice vectors
     5.433588839  3.137083979  7.812725085     0.092020213  0.053127895  0.042665437
    -5.433588839  3.137083979  7.812725085    -0.092020213  0.053127895  0.042665437
     0.000000000 -6.274167957  7.812725085     0.000000000 -0.106255789  0.042665437

  length of vectors
    10.020172494 10.020172494 10.020172494     0.114501669  0.114501669  0.114501669


 
 k-points in units of 2pi/SCALE and weight: Automatic mesh                          
   0.00000000  0.00000000  0.03199908       0.250
  -0.04601011 -0.02656395  0.01066636       0.750
 
 k-points in reciprocal lattice and weights: Automatic mesh                          
   0.25000000  0.25000000  0.25000000       0.250
  -0.25000000  0.25000000  0.25000000       0.750
 
 position of ions in fractional coordinates (direct lattice) 
   0.50000000  0.50000000  0.50000000
   0.38469200  0.38469200  0.38469200
   0.61530800  0.61530800  0.61530800
   0.38067694  0.21354627  0.38067694
   0.38067694  0.38067694  0.21354627
   0.21354627  0.38067694  0.38067694
   0.78645373  0.61932306  0.61932306
   0.61932306  0.61932306  0.78645373
   0.61932306  0.78645373  0.61932306
   0.48930131  0.22177469  0.48930131
   0.48930131  0.48930131  0.22177469
   0.22177469  0.48930131  0.48930131
   0.77822531  0.51069869  0.51069869
   0.51069869  0.51069869  0.77822531
   0.51069869  0.77822531  0.51069869
   0.38488625  0.56807638  0.38488625
   0.38488625  0.38488625  0.56807638
   0.56807638  0.38488625  0.38488625
   0.43192362  0.61511375  0.61511375
   0.61511375  0.61511375  0.43192362
   0.61511375  0.43192362  0.61511375
   0.19898279  0.50524452  0.19898279
   0.19898279  0.19898279  0.50524452
   0.50524452  0.19898279  0.19898279
   0.49475548  0.80101721  0.80101721
   0.80101721  0.80101721  0.49475548
   0.80101721  0.49475548  0.80101721
   0.19924324  0.68572779  0.19924324
   0.19924324  0.19924324  0.68572779
   0.68572779  0.19924324  0.19924324
   0.31427221  0.80075676  0.80075676
   0.80075676  0.80075676  0.31427221
   0.80075676  0.31427221  0.80075676
   0.10344033  0.49017831  0.10344033
   0.10344033  0.10344033  0.49017831
   0.49017831  0.10344033  0.10344033
   0.50982169  0.89655967  0.89655967
   0.89655967  0.89655967  0.50982169
   0.89655967  0.50982169  0.89655967
   0.99673142  0.65830367  0.99673142
   0.99673142  0.99673142  0.65830367
   0.65830367  0.99673142  0.99673142
   0.34169633  0.00326858  0.00326858
   0.00326858  0.00326858  0.34169633
   0.00326858  0.34169633  0.00326858
   0.10057711  0.83993797  0.10057711
   0.10057711  0.10057711  0.83993797
   0.83993797  0.10057711  0.10057711
   0.16006203  0.89942289  0.89942289
   0.89942289  0.89942289  0.16006203
   0.89942289  0.16006203  0.89942289
   0.00383037  0.16161172  0.00383037
   0.00383037  0.00383037  0.16161172
   0.16161172  0.00383037  0.00383037
   0.83838828  0.99616963  0.99616963
   0.99616963  0.99616963  0.83838828
   0.99616963  0.83838828  0.99616963
   0.17838517  0.34538441  0.00385448
   0.00385448  0.17838517  0.34538441
   0.34538441  0.00385448  0.17838517
   0.65461559  0.82161483  0.99614552
   0.82161483  0.99614552  0.65461559
   0.99614552  0.65461559  0.82161483
   0.82161483  0.65461559  0.99614552
   0.99614552  0.82161483  0.65461559
   0.65461559  0.99614552  0.82161483
   0.34538441  0.17838517  0.00385448
   0.17838517  0.00385448  0.34538441
   0.00385448  0.34538441  0.17838517
   0.16592918  0.55083100  0.89525252
   0.89525252  0.16592918  0.55083100
   0.55083100  0.89525252  0.16592918
   0.44916900  0.83407082  0.10474748
   0.83407082  0.10474748  0.44916900
   0.10474748  0.44916900  0.83407082
   0.83407082  0.44916900  0.10474748
   0.10474748  0.83407082  0.44916900
   0.44916900  0.10474748  0.83407082
   0.55083100  0.16592918  0.89525252
   0.16592918  0.89525252  0.55083100
   0.89525252  0.55083100  0.16592918
   0.37592643  0.68395247  0.20059709
   0.20059709  0.37592643  0.68395247
   0.68395247  0.20059709  0.37592643
   0.31604753  0.62407357  0.79940291
   0.62407357  0.79940291  0.31604753
   0.79940291  0.31604753  0.62407357
   0.62407357  0.31604753  0.79940291
   0.79940291  0.62407357  0.31604753
   0.31604753  0.79940291  0.62407357
   0.68395247  0.37592643  0.20059709
   0.37592643  0.20059709  0.68395247
   0.20059709  0.68395247  0.37592643
   0.36404462  0.57925137  0.09608114
   0.09608114  0.36404462  0.57925137
   0.57925137  0.09608114  0.36404462
   0.42074863  0.63595538  0.90391886
   0.63595538  0.90391886  0.42074863
   0.90391886  0.42074863  0.63595538
   0.63595538  0.42074863  0.90391886
   0.90391886  0.63595538  0.42074863
   0.42074863  0.90391886  0.63595538
   0.57925137  0.36404462  0.09608114
   0.36404462  0.09608114  0.57925137
   0.09608114  0.57925137  0.36404462
 
 position of ions in cartesian coordinates  (Angst):
   0.00000000  0.00000000 11.71908763
  -0.00000000 -0.00000000  9.01647852
   0.00000000  0.00000000 14.42169674
   0.90811937 -0.52430296  7.61662689
  -0.00000000  1.04860592  7.61662689
  -0.90811937 -0.52430296  7.61662689
   0.90811937  0.52430296 15.82154837
   0.00000000 -1.04860592 15.82154837
  -0.90811937  0.52430296 15.82154837
   1.45362962 -0.83925345  9.37821786
   0.00000000  1.67850690  9.37821786
  -1.45362962 -0.83925345  9.37821786
   1.45362962  0.83925345 14.05995739
  -0.00000000 -1.67850690 14.05995739
  -1.45362962  0.83925345 14.05995739
  -0.99537985  0.57468282 10.45224540
  -0.00000000 -1.14936565 10.45224540
   0.99537985  0.57468282 10.45224540
  -0.99537985 -0.57468282 12.98592986
   0.00000000  1.14936565 12.98592986
   0.99537985 -0.57468282 12.98592986
  -1.66410031  0.96076876  7.05653226
   0.00000000 -1.92153753  7.05653226
   1.66410031  0.96076876  7.05653226
  -1.66410031 -0.96076876 16.38164299
   0.00000000  1.92153753 16.38164299
   1.66410031 -0.96076876 16.38164299
  -2.64335700  1.52614288  8.47066805
   0.00000000 -3.05228576  8.47066805
   2.64335700  1.52614288  8.47066805
  -2.64335700 -1.52614288 14.96750721
   0.00000000  3.05228576 14.96750721
   2.64335700 -1.52614288 14.96750721
  -2.10137513  1.21322950  5.44593011
   0.00000000 -2.42645899  5.44593011
   2.10137513  1.21322950  5.44593011
  -2.10137513 -1.21322950 17.99224515
  -0.00000000  2.42645899 17.99224515
   2.10137513 -1.21322950 17.99224515
   1.83887725 -1.06167627 20.71752269
  -0.00000000  2.12335255 20.71752269
  -1.83887725 -1.06167627 20.71752269
   1.83887725  1.06167627  2.72065257
   0.00000000 -2.12335255  2.72065257
  -1.83887725  1.06167627  2.72065257
  -4.01738297  2.31943714  8.13376702
   0.00000000 -4.63887427  8.13376702
   4.01738297  2.31943714  8.13376702
  -4.01738297 -2.31943714 15.30440823
  -0.00000000  4.63887427 15.30440823
   4.01738297 -2.31943714 15.30440823
  -0.85731899  0.49497335  1.32247926
  -0.00000000 -0.98994670  1.32247926
   0.85731899  0.49497335  1.32247926
  -0.85731899 -0.49497335 22.11569599
  -0.00000000  0.98994670 22.11569599
   0.85731899 -0.49497335 22.11569599
  -0.90740521  1.61892550  4.12218180
  -0.94832800 -1.59529872  4.12218180
   1.85573322 -0.02362678  4.12218180
  -0.90740521 -1.61892550 19.31599345
  -0.94832800  1.59529872 19.31599345
   1.85573322  0.02362678 19.31599345
   0.90740521 -1.61892550 19.31599345
   0.94832800  1.59529872 19.31599345
  -1.85573322  0.02362678 19.31599345
   0.90740521  1.61892550  4.12218180
   0.94832800 -1.59529872  4.12218180
  -1.85573322 -0.02362678  4.12218180
  -2.09139824 -3.36842780 12.59421206
   3.96284317 -0.12699011 12.59421206
  -1.87144492  3.49541791 12.59421206
  -2.09139824  3.36842780 10.84396319
   3.96284317  0.12699011 10.84396319
  -1.87144492 -3.49541791 10.84396319
   2.09139824  3.36842780 10.84396319
  -3.96284317  0.12699011 10.84396319
   1.87144492 -3.49541791 10.84396319
   2.09139824 -3.36842780 12.59421206
  -3.96284317 -0.12699011 12.59421206
   1.87144492  3.49541791 12.59421206
  -1.67368686  2.06634933  9.84775240
  -0.95266758 -2.48263000  9.84775240
   2.62635444  0.41628067  9.84775240
  -1.67368686 -2.06634933 13.59042285
  -0.95266758  2.48263000 13.59042285
   2.62635444 -0.41628067 13.59042285
   1.67368686 -2.06634933 13.59042285
   0.95266758  2.48263000 13.59042285
  -2.62635444 -0.41628067 13.59042285
   1.67368686  2.06634933  9.84775240
   0.95266758 -2.48263000  9.84775240
  -2.62635444  0.41628067  9.84775240
  -1.16934500  2.35636952  8.12036785
  -1.45600336 -2.19086724  8.12036785
   2.62534837 -0.16550228  8.12036785
  -1.16934500 -2.35636952 15.31780740
  -1.45600336  2.19086724 15.31780740
   2.62534837  0.16550228 15.31780740
   1.16934500 -2.35636952 15.31780740
   1.45600336  2.19086724 15.31780740
  -2.62534837  0.16550228 15.31780740
   1.16934500  2.35636952  8.12036785
   1.45600336 -2.19086724  8.12036785
  -2.62534837 -0.16550228  8.12036785
 


--------------------------------------------------------------------------------------------------------


 k-point   1 :   0.2500 0.2500 0.2500  plane waves:   10355
 k-point   2 :  -0.2500 0.2500 0.2500  plane waves:   10317

 maximum and minimum number of plane-waves per node :     10355    10317

 maximum number of plane-waves:     10355
 maximum index in each direction: 
   IXMAX=   14   IYMAX=   14   IZMAX=   14
   IXMIN=  -14   IYMIN=  -14   IZMIN=  -14


 serial   3D FFT for wavefunctions
 parallel 3D FFT for charge:
    minimum data exchange during FFTs selected (reduces bandwidth)

 
 Radii for the augmentation spheres in the non-local exchange
 for species   1 augmentation radius   0.930 (default was   0.767)
       energy cutoff for augmentation   1274.4
 Maximum index for augmentation-charges in exchange          475
  SETUP_FOCK is finished

 total amount of memory used by VASP MPI-rank0    75383. kBytes
=======================================================================

   base      :      30000. kBytes
   nonlr-proj:      20940. kBytes
   fftplans  :       4240. kBytes
   grid      :       9842. kBytes
   one-center:        322. kBytes
   HF        :          4. kBytes
   wavefun   :      10035. kBytes
 
     INWAV:  cpu time      0.0003: real time      0.0000
 initial charge density was supplied:
 charge density of overlapping atoms calculated
 number of electron     315.0000000 magnetization 
 keeping initial charge density in first step


--------------------------------------------------------------------------------------------------------


 Maximum index for non-local projection operator         1765
 Maximum index for augmentation-charges          292 (set IRDMAX)


--------------------------------------------------------------------------------------------------------


 First call to EWALD:  gamma=   0.191
 Maximum number of real-space cells 3x 3x 3
 Maximum number of reciprocal cells 3x 3x 3

    FEWALD:  cpu time      0.0286: real time      0.0048


--------------------------------------- Ionic step        1  -------------------------------------------




--------------------------------------- Iteration      1(   1)  ---------------------------------------


    POTLOK:  cpu time      0.3526: real time      0.0485
    SETDIJ:  cpu time      0.0364: real time      0.0052
     EDDAV:  cpu time      4.3675: real time      0.5411
       DOS:  cpu time      0.0113: real time      0.0014
    --------------------------------------------
      LOOP:  cpu time      4.7680: real time      0.5962

 eigenvalue-minimisations  :   896
 total energy-change (2. order) :-0.1632774E+04  (-0.1078893E+05)
 number of electron     315.0000000 magnetization 
 augmentation part      315.0000000 magnetization 

 Free energy of the ion-electron system (eV)
  ---------------------------------------------------
  alpha Z        PSCENC =       903.79225855
  Ewald energy   TEWEN  =     -8083.97794766
  -Hartree energ DENC   =     -1168.26663784
  -exchange      EXHF   =         0.00000000
  -V(xc)+E(xc)   XCENC  =       931.13594482
  PAW double counting   =      1393.32959811    -3401.01610891
  entropy T*S    EENTRO =        -0.00691051
  eigenvalues    EBANDS =       449.45165695
  atomic energy  EATOM  =      7342.78398276
  Solvation  Ediel_sol  =         0.00000000
  ---------------------------------------------------
  free energy    TOTEN  =     -1632.77416373 eV

  energy without entropy =    -1632.76725322  energy(sigma->0) =    -1632.77186022
  exchange ACFDT corr.  =         0.00000000  see jH, gK, PRB 81, 115126


--------------------------------------------------------------------------------------------------------




--------------------------------------- Iteration      1(   2)  ---------------------------------------


     EDDAV:  cpu time      3.4478: real time      0.4030
       DOS:  cpu time      0.0074: real time      0.0009
    --------------------------------------------
      LOOP:  cpu time      3.4552: real time      0.4038

 eigenvalue-minimisations  :  1112
 total energy-change (2. order) :-0.1182927E+04  (-0.1122068E+04)
 number of electron     315.0000000 magnetization 
 augmentation part      315.0000000 magnetization 

 Free energy of the ion-electron system (eV)
  ---------------------------------------------------
  alpha Z        PSCENC =       903.79225855
  Ewald energy   TEWEN  =     -8083.97794766
  -Hartree energ DENC   =     -1168.26663784
  -exchange      EXHF   =         0.00000000
  -V(xc)+E(xc)   XCENC  =       931.13594482
  PAW double counting   =      1393.32959811    -3401.01610891
  entropy T*S    EENTRO =        -0.00025344
  eigenvalues    EBANDS =      -733.48150322
  atomic energy  EATOM  =      7342.78398276
  Solvation  Ediel_sol  =         0.00000000
  ---------------------------------------------------
  free energy    TOTEN  =     -2815.70066683 eV

  energy without entropy =    -2815.70041339  energy(sigma->0) =    -2815.70058235
  exchange ACFDT corr.  =         0.00000000  see jH, gK, PRB 81, 115126


--------------------------------------------------------------------------------------------------------




--------------------------------------- Iteration      1(   3)  ---------------------------------------


     EDDAV:  cpu time      3.3986: real time      0.3957
       DOS:  cpu time      0.0079: real time      0.0010
    --------------------------------------------
      LOOP:  cpu time      3.4065: real time      0.3966

 eigenvalue-minimisations  :  1120
 total energy-change (2. order) :-0.5669245E+02  (-0.5566345E+02)
 number of electron     315.0000000 magnetization 
 augmentation part      315.0000000 magnetization 

 Free energy of the ion-electron system (eV)
  ---------------------------------------------------
  alpha Z        PSCENC =       903.79225855
  Ewald energy   TEWEN  =     -8083.97794766
  -Hartree energ DENC   =     -1168.26663784
  -exchange      EXHF   =         0.00000000
  -V(xc)+E(xc)   XCENC  =       931.13594482
  PAW double counting   =      1393.32959811    -3401.01610891
  entropy T*S    EENTRO =        -0.01006910
  eigenvalues    EBANDS =      -790.16413501
  atomic energy  EATOM  =      7342.78398276
  Solvation  Ediel_sol  =         0.00000000
  ---------------------------------------------------
  free energy    TOTEN  =     -2872.39311428 eV

  energy without entropy =    -2872.38304518  energy(sigma->0) =    -2872.38975791
  exchange ACFDT corr.  =         0.00000000  see jH, gK, PRB 81, 115126


--------------------------------------------------------------------------------------------------------




--------------------------------------- Iteration      1(   4)  ---------------------------------------


     EDDAV:  cpu time      3.3176: real time      0.3863
       DOS:  cpu time      0.0080: real time      0.0010
    --------------------------------------------
      LOOP:  cpu time      3.3257: real time      0.3872

 eigenvalue-minimisations  :  1088
 total energy-change (2. order) :-0.9830229E+00  (-0.9780643E+00)
 number of electron     315.0000000 magnetization 
 augmentation part      315.0000000 magnetization 

 Free energy of the ion-electron system (eV)
  ---------------------------------------------------
  alpha Z        PSCENC =       903.79225855
  Ewald energy   TEWEN  =     -8083.97794766
  -Hartree energ DENC   =     -1168.26663784
  -exchange      EXHF   =         0.00000000
  -V(xc)+E(xc)   XCENC  =       931.13594482
  PAW double counting   =      1393.32959811    -3401.01610891
  entropy T*S    EENTRO =        -0.01031051
  eigenvalues    EBANDS =      -791.14691655
  atomic energy  EATOM  =      7342.78398276
  Solvation  Ediel_sol  =         0.00000000
  ---------------------------------------------------
  free energy    TOTEN  =     -2873.37613723 eV

  energy without entropy =    -2873.36582672  energy(sigma->0) =    -2873.37270039
  exchange ACFDT corr.  =         0.00000000  see jH, gK, PRB 81, 115126


--------------------------------------------------------------------------------------------------------




--------------------------------------- Iteration      1(   5)  ---------------------------------------


    POTLOK:  cpu time      0.2709: real time      0.0340
    SETDIJ:  cpu time      0.1453: real time      0.0182
     EDDAV:  cpu time      6.2860: real time      4.4388
       DOS:  cpu time      0.0054: real time      0.0007
    CHARGE:  cpu time      0.1550: real time      0.0198
    MIXING:  cpu time      0.0039: real time      0.0005
    --------------------------------------------
      LOOP:  cpu time      6.8666: real time      4.5120

 eigenvalue-minimisations  :   960
 total energy-change (2. order) : 0.2020618E+04  (-0.3136621E+01)
 number of electron     314.9999994 magnetization 
 augmentation part       -1.0894852 magnetization 

 Free energy of the ion-electron system (eV)
  ---------------------------------------------------
  alpha Z        PSCENC =       903.79225855
  Ewald energy   TEWEN  =     -8083.97794766
  -Hartree energ DENC   =     -1168.26663784
  -exchange      EXHF   =       575.70708343
  -V(xc)+E(xc)   XCENC  =       718.82114090
  PAW double counting   =      1512.37179022    -1566.14173300
  entropy T*S    EENTRO =        -0.04161142
  eigenvalues    EBANDS =     -1087.80631918
  atomic energy  EATOM  =      7342.78398276
  Solvation  Ediel_sol  =         0.00000000
  ---------------------------------------------------
  free energy    TOTEN  =      -852.75799323 eV

  energy without entropy =     -852.71638182  energy(sigma->0) =     -852.74412276
  exchange ACFDT corr.  =         0.00000000  see jH, gK, PRB 81, 115126


--------------------------------------------------------------------------------------------------------




--------------------------------------- Iteration      1(   6)  ---------------------------------------


    POTLOK:  cpu time      0.2710: real time      0.0340
    SETDIJ:  cpu time      0.1356: real time      0.0171
     EDDAV:  cpu time      6.4018: real time      4.4216
       DOS:  cpu time      0.0055: real time      0.0007
    CHARGE:  cpu time      0.1210: real time      0.0151
    MIXING:  cpu time      0.0056: real time      0.0007
    --------------------------------------------
      LOOP:  cpu time      6.9405: real time      4.4892

 eigenvalue-minimisations  :  1008
 total energy-change (2. order) : 0.3783210E+02  (-0.3633184E+01)
 number of electron     314.9999989 magnetization 
 augmentation part       -1.2308034 magnetization 

 Free energy of the ion-electron system (eV)
  ---------------------------------------------------
  alpha Z        PSCENC =       903.79225855
  Ewald energy   TEWEN  =     -8083.97794766
  -Hartree energ DENC   =     -1327.11545803
  -exchange      EXHF   =       578.30488055
  -V(xc)+E(xc)   XCENC  =       727.15669804
  PAW double counting   =      2357.18567445    -2417.74876875
  entropy T*S    EENTRO =        -0.02020476
  eigenvalues    EBANDS =      -895.28700883
  atomic energy  EATOM  =      7342.78398276
  Solvation  Ediel_sol  =         0.00000000
  ---------------------------------------------------
  free energy    TOTEN  =      -814.92589369 eV

  energy without entropy =     -814.90568892  energy(sigma->0) =     -814.91915876
  exchange ACFDT corr.  =         0.00000000  see jH, gK, PRB 81, 115126


--------------------------------------------------------------------------------------------------------




--------------------------------------- Iteration      1(   7)  ---------------------------------------


    POTLOK:  cpu time      0.2700: real time      0.0339
    SETDIJ:  cpu time      0.1343: real time      0.0168
     EDDAV:  cpu time      6.3268: real time      4.3827
       DOS:  cpu time      0.0054: real time      0.0007
    CHARGE:  cpu time      0.1213: real time      0.0151
    MIXING:  cpu time      0.0051: real time      0.0006
    --------------------------------------------
      LOOP:  cpu time      6.8631: real time      4.4498

 eigenvalue-minimisations  :  1024
 total energy-change (2. order) : 0.6582166E+01  (-0.2004839E+01)
 number of electron     314.9999987 magnetization 
 augmentation part       -1.3151950 magnetization 

 Free energy of the ion-electron system (eV)
  ---------------------------------------------------
  alpha Z        PSCENC =       903.79225855
  Ewald energy   TEWEN  =     -8083.97794766
  -Hartree energ DENC   =     -1413.35852673
  -exchange      EXHF   =       572.73626439
  -V(xc)+E(xc)   XCENC  =       732.30735666
  PAW double counting   =      2910.21281973    -2974.17219692
  entropy T*S    EENTRO =        -0.03431042
  eigenvalues    EBANDS =      -798.63342761
  atomic energy  EATOM  =      7342.78398276
  Solvation  Ediel_sol  =         0.00000000
  ---------------------------------------------------
  free energy    TOTEN  =      -808.34372726 eV

  energy without entropy =     -808.30941683  energy(sigma->0) =     -808.33229045
  exchange ACFDT corr.  =         0.00000000  see jH, gK, PRB 81, 115126


--------------------------------------------------------------------------------------------------------




--------------------------------------- Iteration      1(   8)  ---------------------------------------


    POTLOK:  cpu time      0.2696: real time      0.0338
    SETDIJ:  cpu time      0.1350: real time      0.0169
     EDDAV:  cpu time      6.5570: real time      4.4056
       DOS:  cpu time      0.0056: real time      0.0007
    CHARGE:  cpu time      0.1219: real time      0.0152
    MIXING:  cpu time      0.0060: real time      0.0008
    --------------------------------------------
      LOOP:  cpu time      7.0950: real time      4.4729

 eigenvalue-minimisations  :  1056
 total energy-change (2. order) : 0.1088591E+01  (-0.3509363E+00)
 number of electron     314.9999985 magnetization 
 augmentation part       -1.3540554 magnetization 

 Free energy of the ion-electron system (eV)
  ---------------------------------------------------
  alpha Z        PSCENC =       903.79225855
  Ewald energy   TEWEN  =     -8083.97794766
  -Hartree energ DENC   =     -1450.92485831
  -exchange      EXHF   =       568.36654650
  -V(xc)+E(xc)   XCENC  =       734.90083412
  PAW double counting   =      3237.94095799    -3303.49259002
  entropy T*S    EENTRO =        -0.03018710
  eigenvalues    EBANDS =      -756.61413266
  atomic energy  EATOM  =      7342.78398276
  Solvation  Ediel_sol  =         0.00000000
  ---------------------------------------------------
  free energy    TOTEN  =      -807.25513582 eV

  energy without entropy =     -807.22494872  energy(sigma->0) =     -807.24507345
  exchange ACFDT corr.  =         0.00000000  see jH, gK, PRB 81, 115126


--------------------------------------------------------------------------------------------------------




--------------------------------------- Iteration      1(   9)  ---------------------------------------


    POTLOK:  cpu time      0.2918: real time      0.0370
    SETDIJ:  cpu time      0.1354: real time      0.0170
     EDDAV:  cpu time      6.3420: real time      4.3822
       DOS:  cpu time      0.0054: real time      0.0007
    CHARGE:  cpu time      0.1238: real time      0.0154
    MIXING:  cpu time      0.0054: real time      0.0007
    --------------------------------------------
      LOOP:  cpu time      6.9037: real time      4.4529

 eigenvalue-minimisations  :   992
 total energy-change (2. order) : 0.3519569E+00  (-0.5630656E-01)
 number of electron     314.9999984 magnetization 
 augmentation part       -1.3707006 magnetization 

 Free energy of the ion-electron system (eV)
  ---------------------------------------------------
  alpha Z        PSCENC =       903.79225855
  Ewald energy   TEWEN  =     -8083.97794766
  -Hartree energ DENC   =     -1468.91726865
  -exchange      EXHF   =       566.60014240
  -V(xc)+E(xc)   XCENC  =       736.22014611
  PAW double counting   =      3429.67892922    -3496.01205328
  entropy T*S    EENTRO =        -0.02786872
  eigenvalues    EBANDS =      -737.04349965
  atomic energy  EATOM  =      7342.78398276
  Solvation  Ediel_sol  =         0.00000000
  ---------------------------------------------------
  free energy    TOTEN  =      -806.90317891 eV

  energy without entropy =     -806.87531019  energy(sigma->0) =     -806.89388934
  exchange ACFDT corr.  =         0.00000000  see jH, gK, PRB 81, 115126


--------------------------------------------------------------------------------------------------------




--------------------------------------- Iteration      1(  10)  ---------------------------------------


    POTLOK:  cpu time      0.2675: real time      0.0335
    SETDIJ:  cpu time      0.1344: real time      0.0169
     EDDAV:  cpu time      6.2904: real time      4.3876
       DOS:  cpu time      0.0054: real time      0.0007
    CHARGE:  cpu time      0.1225: real time      0.0153
    MIXING:  cpu time      0.0039: real time      0.0005
    --------------------------------------------
      LOOP:  cpu time      6.8241: real time      4.4544

 eigenvalue-minimisations  :  1016
 total energy-change (2. order) : 0.7935565E-01  (-0.1584866E-01)
 number of electron     314.9999984 magnetization 
 augmentation part       -1.3772934 magnetization 

 Free energy of the ion-electron system (eV)
  ---------------------------------------------------
  alpha Z        PSCENC =       903.79225855
  Ewald energy   TEWEN  =     -8083.97794766
  -Hartree energ DENC   =     -1478.92372616
  -exchange      EXHF   =       565.93731310
  -V(xc)+E(xc)   XCENC  =       736.92765189
  PAW double counting   =      3542.12331043    -3608.85756239
  entropy T*S    EENTRO =        -0.02784832
  eigenvalues    EBANDS =      -726.60125545
  atomic energy  EATOM  =      7342.78398276
  Solvation  Ediel_sol  =         0.00000000
  ---------------------------------------------------
  free energy    TOTEN  =      -806.82382326 eV

  energy without entropy =     -806.79597494  energy(sigma->0) =     -806.81454049
  exchange ACFDT corr.  =         0.00000000  see jH, gK, PRB 81, 115126


--------------------------------------------------------------------------------------------------------




--------------------------------------- Iteration      1(  11)  ---------------------------------------


    POTLOK:  cpu time      0.2658: real time      0.0333
    SETDIJ:  cpu time      0.1350: real time      0.0169
     EDDAV:  cpu time      6.2612: real time      4.3601
       DOS:  cpu time      0.0056: real time      0.0007
    CHARGE:  cpu time      0.1215: real time      0.0151
    MIXING:  cpu time      0.0036: real time      0.0005
    --------------------------------------------
      LOOP:  cpu time      6.7927: real time      4.4265

 eigenvalue-minimisations  :  1008
 total energy-change (2. order) : 0.1371324E-01  (-0.3541185E-02)
 number of electron     314.9999983 magnetization 
 augmentation part       -1.3802823 magnetization 

 Free energy of the ion-electron system (eV)
  ---------------------------------------------------
  alpha Z        PSCENC =       903.79225855
  Ewald energy   TEWEN  =     -8083.97794766
  -Hartree energ DENC   =     -1484.80666193
  -exchange      EXHF   =       565.63357856
  -V(xc)+E(xc)   XCENC  =       737.31529287
  PAW double counting   =      3607.80976917    -3674.75519489
  entropy T*S    EENTRO =        -0.02827980
  eigenvalues    EBANDS =      -720.57690766
  atomic energy  EATOM  =      7342.78398276
  Solvation  Ediel_sol  =         0.00000000
  ---------------------------------------------------
  free energy    TOTEN  =      -806.81011002 eV

  energy without entropy =     -806.78183022  energy(sigma->0) =     -806.80068342
  exchange ACFDT corr.  =         0.00000000  see jH, gK, PRB 81, 115126


--------------------------------------------------------------------------------------------------------




--------------------------------------- Iteration      1(  12)  ---------------------------------------


    POTLOK:  cpu time      0.2794: real time      0.0352
    SETDIJ:  cpu time      0.1387: real time      0.0174
     EDDAV:  cpu time      6.1967: real time      4.3748
       DOS:  cpu time      0.0055: real time      0.0007
    CHARGE:  cpu time      0.1203: real time      0.0150
    MIXING:  cpu time      0.0044: real time      0.0005
    --------------------------------------------
      LOOP:  cpu time      6.7449: real time      4.4436

 eigenvalue-minimisations  :   984
 total energy-change (2. order) :-0.3648113E-04  (-0.1024799E-02)
 number of electron     314.9999983 magnetization 
 augmentation part       -1.3818829 magnetization 

 Free energy of the ion-electron system (eV)
  ---------------------------------------------------
  alpha Z        PSCENC =       903.79225855
  Ewald energy   TEWEN  =     -8083.97794766
  -Hartree energ DENC   =     -1488.29422375
  -exchange      EXHF   =       565.48401049
  -V(xc)+E(xc)   XCENC  =       737.53339284
  PAW double counting   =      3646.12156622    -3713.16799168
  entropy T*S    EENTRO =        -0.02853893
  eigenvalues    EBANDS =      -717.05665534
  atomic energy  EATOM  =      7342.78398276
  Solvation  Ediel_sol  =         0.00000000
  ---------------------------------------------------
  free energy    TOTEN  =      -806.81014650 eV

  energy without entropy =     -806.78160758  energy(sigma->0) =     -806.80063353
  exchange ACFDT corr.  =         0.00000000  see jH, gK, PRB 81, 115126


--------------------------------------------------------------------------------------------------------




--------------------------------------- Iteration      1(  13)  ---------------------------------------


    POTLOK:  cpu time      0.2654: real time      0.0332
    SETDIJ:  cpu time      0.1375: real time      0.0172
     EDDAV:  cpu time      6.2714: real time      4.3698
       DOS:  cpu time      0.0054: real time      0.0006
    CHARGE:  cpu time      0.1234: real time      0.0155
    MIXING:  cpu time      0.0040: real time      0.0005
    --------------------------------------------
      LOOP:  cpu time      6.8072: real time      4.4369

 eigenvalue-minimisations  :  1016
 total energy-change (2. order) :-0.2000331E-02  (-0.3294349E-03)
 number of electron     314.9999983 magnetization 
 augmentation part       -1.3827373 magnetization 

 Free energy of the ion-electron system (eV)
  ---------------------------------------------------
  alpha Z        PSCENC =       903.79225855
  Ewald energy   TEWEN  =     -8083.97794766
  -Hartree energ DENC   =     -1490.33492125
  -exchange      EXHF   =       565.40075081
  -V(xc)+E(xc)   XCENC  =       737.65701300
  PAW double counting   =      3668.41794170    -3735.51995685
  entropy T*S    EENTRO =        -0.02857743
  eigenvalues    EBANDS =      -715.00269048
  atomic energy  EATOM  =      7342.78398276
  Solvation  Ediel_sol  =         0.00000000
  ---------------------------------------------------
  free energy    TOTEN  =      -806.81214683 eV

  energy without entropy =     -806.78356940  energy(sigma->0) =     -806.80262102
  exchange ACFDT corr.  =         0.00000000  see jH, gK, PRB 81, 115126


--------------------------------------------------------------------------------------------------------




--------------------------------------- Iteration      1(  14)  ---------------------------------------


    POTLOK:  cpu time      0.2661: real time      0.0334
    SETDIJ:  cpu time      0.1366: real time      0.0171
     EDDAV:  cpu time      6.2012: real time      4.3608
       DOS:  cpu time      0.0057: real time      0.0007
    CHARGE:  cpu time      0.1187: real time      0.0148
    MIXING:  cpu time      0.0044: real time      0.0005
    --------------------------------------------
      LOOP:  cpu time      6.7326: real time      4.4273

 eigenvalue-minimisations  :   992
 total energy-change (2. order) :-0.1516643E-02  (-0.1099147E-03)
 number of electron     314.9999983 magnetization 
 augmentation part       -1.3831552 magnetization 

 Free energy of the ion-electron system (eV)
  ---------------------------------------------------
  alpha Z        PSCENC =       903.79225855
  Ewald energy   TEWEN  =     -8083.97794766
  -Hartree energ DENC   =     -1491.53847332
  -exchange      EXHF   =       565.35637026
  -V(xc)+E(xc)   XCENC  =       737.72806205
  PAW double counting   =      3681.38415612    -3748.51409284
  entropy T*S    EENTRO =        -0.02854950
  eigenvalues    EBANDS =      -713.79942990
  atomic energy  EATOM  =      7342.78398276
  Solvation  Ediel_sol  =         0.00000000
  ---------------------------------------------------
  free energy    TOTEN  =      -806.81366348 eV

  energy without entropy =     -806.78511398  energy(sigma->0) =     -806.80414698
  exchange ACFDT corr.  =         0.00000000  see jH, gK, PRB 81, 115126


--------------------------------------------------------------------------------------------------------




--------------------------------------- Iteration      1(  15)  ---------------------------------------


    POTLOK:  cpu time      0.2652: real time      0.0333
    SETDIJ:  cpu time      0.1365: real time      0.0171
     EDDAV:  cpu time      6.1439: real time      4.3411
       DOS:  cpu time      0.0052: real time      0.0007
    --------------------------------------------
      LOOP:  cpu time      6.5508: real time      4.3921

 eigenvalue-minimisations  :   976
 total energy-change (2. order) :-0.8909646E-03  (-0.4429887E-04)
 number of electron     314.9999983 magnetization 
 augmentation part       -1.3831552 magnetization 

 Free energy of the ion-electron system (eV)
  ---------------------------------------------------
  alpha Z        PSCENC =       903.79225855
  Ewald energy   TEWEN  =     -8083.97794766
  -Hartree energ DENC   =     -1492.26789075
  -exchange      EXHF   =       565.33415162
  -V(xc)+E(xc)   XCENC  =       737.76981067
  PAW double counting   =      3688.94953775    -3756.09422555
  entropy T*S    EENTRO =        -0.02853896
  eigenvalues    EBANDS =      -713.07569287
  atomic energy  EATOM  =      7342.78398276
  Solvation  Ediel_sol  =         0.00000000
  ---------------------------------------------------
  free energy    TOTEN  =      -806.81455444 eV

  energy without entropy =     -806.78601548  energy(sigma->0) =     -806.80504145
  exchange ACFDT corr.  =         0.00000000  see jH, gK, PRB 81, 115126


--------------------------------------------------------------------------------------------------------




 average (electrostatic) potential at core
  the test charge radii are     0.7672
  (the norm of the test charge is              1.0000)
       1 -24.9456       2 -26.3545       3 -26.3545       4 -26.5440       5 -26.5440
       6 -26.5440       7 -26.5440       8 -26.5440       9 -26.5440      10 -26.2122
      11 -26.2122      12 -26.2122      13 -26.2122      14 -26.2122      15 -26.2122
      16 -27.3164      17 -27.3164      18 -27.3164      19 -27.3164      20 -27.3164
      21 -27.3164      22 -24.5229      23 -24.5229      24 -24.5229      25 -24.5229
      26 -24.5229      27 -24.5229      28 -24.0337      29 -24.0337      30 -24.0337
      31 -24.0337      32 -24.0337      33 -24.0337      34 -23.6128      35 -23.6128
      36 -23.6128      37 -23.6128      38 -23.6128      39 -23.6128      40 -23.9478
      41 -23.9478      42 -23.9478      43 -23.9478      44 -23.9478      45 -23.9478
      46 -23.5504      47 -23.5504      48 -23.5504      49 -23.5504      50 -23.5504
      51 -23.5504      52 -24.2922      53 -24.2922      54 -24.2922      55 -24.2922
      56 -24.2922      57 -24.2922      58 -23.9657      59 -23.9657      60 -23.9658
      61 -23.9658      62 -23.9657      63 -23.9657      64 -23.9657      65 -23.9657
      66 -23.9658      67 -23.9658      68 -23.9657      69 -23.9657      70 -23.6312
      71 -23.6313      72 -23.6313      73 -23.6313      74 -23.6312      75 -23.6312
      76 -23.6312      77 -23.6313      78 -23.6313      79 -23.6313      80 -23.6312
      81 -23.6312      82 -24.6463      83 -24.6463      84 -24.6463      85 -24.6463
      86 -24.6463      87 -24.6463      88 -24.6463      89 -24.6463      90 -24.6463
      91 -24.6463      92 -24.6463      93 -24.6463      94 -25.4586      95 -25.4586
      96 -25.4586      97 -25.4586      98 -25.4586      99 -25.4586     100 -25.4586
     101 -25.4586     102 -25.4586     103 -25.4586     104 -25.4586     105 -25.4586
 
 
 
 E-fermi :   4.3251     XC(G=0):  -9.1133     alpha+bet :-14.7287

 Fermi energy:         4.3251094441

 k-point     1 :       0.2500    0.2500    0.2500
  band No.  band energies     occupation 
      1     -15.1699      2.00000
      2     -15.0048      2.00000
      3     -12.3429      2.00000
      4     -12.1204      2.00000
      5     -12.1204      2.00000
      6     -12.0492      2.00000
      7     -11.9613      2.00000
      8     -11.9613      2.00000
      9     -11.7461      2.00000
     10     -10.9054      2.00000
     11     -10.7003      2.00000
     12     -10.7003      2.00000
     13      -9.4211      2.00000
     14      -9.0978      2.00000
     15      -9.0978      2.00000
     16      -9.0399      2.00000
     17      -9.0298      2.00000
     18      -9.0298      2.00000
     19      -8.2260      2.00000
     20      -8.2260      2.00000
     21      -8.0953      2.00000
     22      -7.9527      2.00000
     23      -7.9527      2.00000
     24      -7.7581      2.00000
     25      -7.5564      2.00000
     26      -7.5564      2.00000
     27      -7.0765      2.00000
     28      -7.0036      2.00000
     29      -6.9590      2.00000
     30      -6.9590      2.00000
     31      -6.6829      2.00000
     32      -6.6342      2.00000
     33      -6.6342      2.00000
     34      -6.2924      2.00000
     35      -6.2755      2.00000
     36      -6.2709      2.00000
     37      -6.2709      2.00000
     38      -6.0380      2.00000
     39      -5.9117      2.00000
     40      -5.9117      2.00000
     41      -5.3437      2.00000
     42      -5.2939      2.00000
     43      -5.0798      2.00000
     44      -5.0798      2.00000
     45      -4.8664      2.00000
     46      -4.7756      2.00000
     47      -4.7756      2.00000
     48      -4.6314      2.00000
     49      -4.6314      2.00000
     50      -4.0289      2.00000
     51      -3.6532      2.00000
     52      -3.5954      2.00000
     53      -3.5954      2.00000
     54      -3.4872      2.00000
     55      -3.2795      2.00000
     56      -3.2795      2.00000
     57      -3.1820      2.00000
     58      -3.1820      2.00000
     59      -2.9371      2.00000
     60      -2.8595      2.00000
     61      -2.8042      2.00000
     62      -2.8042      2.00000
     63      -2.5204      2.00000
     64      -2.5204      2.00000
     65      -2.5077      2.00000
     66      -2.4869      2.00000
     67      -2.3260      2.00000
     68      -2.3260      2.00000
     69      -2.1971      2.00000
     70      -2.1971      2.00000
     71      -1.8981      2.00000
     72      -1.7868      2.00000
     73      -1.7761      2.00000
     74      -1.7761      2.00000
     75      -1.5800      2.00000
     76      -1.5800      2.00000
     77      -1.3568      2.00000
     78      -1.3568      2.00000
     79      -1.3372      2.00000
     80      -1.2234      2.00000
     81      -1.2234      2.00000
     82      -1.1608      2.00000
     83      -0.9696      2.00000
     84      -0.9636      2.00000
     85      -0.9636      2.00000
     86      -0.7612      2.00000
     87      -0.7612      2.00000
     88      -0.6337      2.00000
     89      -0.6337      2.00000
     90      -0.4570      2.00000
     91      -0.4267      2.00000
     92      -0.2854      2.00000
     93      -0.1449      2.00000
     94      -0.1449      2.00000
     95      -0.1182      2.00000
     96       0.0724      2.00000
     97       0.0964      2.00000
     98       0.0964      2.00000
     99       0.3110      2.00000
    100       0.3736      2.00000
    101       0.3736      2.00000
    102       0.5440      2.00000
    103       0.7242      2.00000
    104       0.7385      2.00000
    105       0.7385      2.00000
    106       0.8686      2.00000
    107       0.8686      2.00000
    108       1.0632      2.00000
    109       1.0632      2.00000
    110       1.1125      2.00000
    111       1.1622      2.00000
    112       1.3081      2.00000
    113       1.3081      2.00000
    114       1.3163      2.00000
    115       1.3163      2.00000
    116       1.4206      2.00000
    117       1.4206      2.00000
    118       1.4707      2.00000
    119       1.5530      2.00000
    120       1.6760      2.00000
    121       1.6763      2.00000
    122       1.6763      2.00000
    123       1.8328      2.00000
    124       1.8328      2.00000
    125       1.9072      2.00000
    126       2.0703      2.00000
    127       2.1479      2.00000
    128       2.1479      2.00000
    129       2.1782      2.00000
    130       2.1983      2.00000
    131       2.1983      2.00000
    132       2.4288      2.00000
    133       2.4839      2.00000
    134       2.4839      2.00000
    135       2.7170      2.00000
    136       2.7170      2.00000
    137       2.7864      2.00000
    138       2.8108      2.00000
    139       2.8108      2.00000
    140       3.0071      2.00000
    141       3.0616      2.00000
    142       3.0616      2.00000
    143       3.1821      2.00000
    144       3.2120      2.00000
    145       3.2649      2.00000
    146       3.2649      2.00000
    147       3.3723      2.00000
    148       3.3723      2.00000
    149       3.4339      2.00000
    150       3.5980      2.00000
    151       3.6678      2.00003
    152       3.6993      2.00009
    153       3.6993      2.00009
    154       3.7756      2.00071
    155       3.7756      2.00071
    156       4.0585      2.06782
    157       4.0585      2.06782
    158       4.2366      1.67363
    159       4.9972     -0.00002
    160       4.9972     -0.00002
    161       6.8817     -0.00000
    162       7.1222     -0.00000
    163       7.1222     -0.00000
    164       7.1724     -0.00000
    165       7.1724     -0.00000
    166       7.1975     -0.00000
    167       7.5034     -0.00000
    168       7.5034     -0.00000
    169       7.9697     -0.00000
    170       8.0611     -0.00000
    171       8.1104     -0.00000
    172       8.1104     -0.00000
[...]
  320                  map_scatter                           0.000020                  2   8
  321                map_backward                          0.000037                    2   7
  322                  map_gather                            0.000003                  1   8
  323                  m_alltoallv_z                         0.000022                  1   8
  324                  map_scatter                           0.000004                  1   8
  325          m_sumb_d                              0.000017                          2   4
  326          pothar                                0.000369                          1   4
  327            m_sumb_d                              0.000114                        1   5
  328        forhar                                0.001222                            1   3
  329          m_sumb_d                              0.000059                          1   4
  330        m_sumb_d                              0.000089                            1   3
  331        m_bcast_d                             0.000062                            2   3
  332      potlok                                0.032592                              1   2
  333        fft3d_mpi                             0.011676                           13   3
  334          fftbrc_mpi                            0.009805                         13   4
  335            fftbas_plan_mpi                       0.009797                       13   5
  336              dfftw_execute                         0.002171                     39   6
  337              map_forward                           0.002608                     14   6
  338                map_gather                            0.000310                    8   7
  339                m_alltoallv_z                         0.001929                    8   7
  340                map_scatter                           0.000352                    8   7
  341              map_backward                          0.004638                     12   6
  342                map_gather                            0.000204                    6   7
  343                m_alltoallv_z                         0.001769                    6   7
  344                map_scatter                           0.002661                    6   7
  345        ggaall_grid                           0.018510                            1   3
  346        m_sumb_d                              0.000048                            5   3
  347        pothar                                0.000281                            1   3
  348          m_sumb_d                              0.000056                          1   4
  349        m_bcast_d                             0.000276                            1   3
  350      potlok_metagga                        0.000000                              1   2
  351      set_dd_magatom                        0.000005                              1   2
  352      set_dd_paw                            0.015159                              1   2
  353        set_rsgf_all                          0.001526                            1   3
  354        m_sumb_d                              0.000192                            7   3
  355      densta                                0.000533                              1   2
  356        m_sumb_d                              0.000165                           35   3
 
 Flat profile
 ============
 
             routine name                   CPU           calls
 ---------------------------------------------------------------
 fock_fwd                               31.880826          88
 total_time                              5.159917           1
 fock_set_gfac_vkpt                      5.047716         704
 hip_hipfft_makeplan                     4.619314          19
 dllmm_trans_eccp_nl_fock                4.277932        8640
 init_hip                                3.057461           1
 eddav                                   2.455207          15
 phaser_hf                               1.722295         752
 fock_force                              0.962588           1
 m_sumb_d                                0.767960       11248
 lapack                                  0.734704        2746
 fock_ace_acc_apply                      0.715498        1995
 rspher_all                              0.710655          46
 phaser                                  0.707552          80
 m_alltoall_d                            0.604105       26180
 fock_set_fsg_der                        0.582222           1
 fock_set_fsg                            0.533720           1
 orth1                                   0.359006        8262
 hip_init_hipblas                        0.323472           1
 choleski                                0.318539          24
 fft3d                                   0.308595       48046
 fock_all_dblbuf                         0.283113          11
 wrk_allocate                            0.252889           1
 rpromu_acc                              0.243326        2214
 fft_and_gather                          0.238042          94
 m_alltoallv_z                           0.232255         218
 ggaall_grid                             0.225871          13
 wfinit                                  0.224226           1
 raccmu_                                 0.202713        2746
 waitred                                 0.197630          88
 fft3d_mu                                0.192739       28160
 rpromu_hf_acc                           0.187599       23680
 set_dd_paw                              0.180351          14
 hamiltmu                                0.177898        2746
 overl_mu                                0.143333        2746
 depsum_two_bands_rholm_trace_m          0.120244       15040
 waitgth                                 0.119939          88
 m_bcast_z                               0.112873        3194
 fftwav                                  0.107007       10802
 w1_copy                                 0.105369       14388
 newband                                 0.104935        2776
 ggemm                                   0.091911        3586
 redis_pw                                0.075905       11518
 racc0mu_hf_acc                          0.073901       15040
 calc_dllmm_trans_and_overl_foc          0.069494       14080
 setdij_                                 0.057643          40
 m_bcast_d                               0.056406        5507
 pw_charge_trace_mu_acc                  0.056257       15040
 apply_gfac_exchange_mu_acc              0.053262       14080
 vhamil_trace_mu_acc                     0.051941       14080
 elmin                                   0.051780           1
 fft3d_mpi                               0.050627       37438
 redis_proj                              0.050309        9370
 lincom                                  0.048178          54
 map_scatter                             0.046833         218
 dfftw_execute                           0.045724         573
 fock_ace_construct                      0.043543          11
 racc0mu_acc                             0.041944        2746
 contraction                             0.034690        8640
 w1_dot                                  0.034337         616
 overl                                   0.033044        4654
 depsum_sym                              0.031875          11
 fock_bck                                0.031097          88
 fock_charge_mu                          0.025499       15040
 soft_charge_sym                         0.025406          11
 potlok                                  0.025235          13
 set_rsgf_all                            0.020341          14
 batched_fft                             0.020045       29440
 augmentation_charge                     0.019160          11
 eccp                                    0.018112         840
 inisym                                  0.017404           1
 fftwav_mpi                              0.016738       10802
 force_and_stress                        0.016398           1
 fftext_mpi                              0.015158        3978
 apply_precond                           0.014991        1906
 w1_daxpy                                0.014939        1995
 vhamil                                  0.012049        2746
 kinhamil                                0.010525        2746
 m_ibcast_z_from                         0.008420       13376
 reduce                                  0.007427          88
 map_gather                              0.007314         218
 rpro_isp                                0.007264          44
 pw_charge                               0.006845        2008
 depsum_two_bands_rholm_trace_m          0.006685       15040
 fftbas_plan_mpi                         0.006565         194
 pw_charge_trace_mu                      0.006516       15040
 wrk_deallocate                          0.006344           1
 densta                                  0.006135          16
 proall                                  0.006004           1
 setup_precond                           0.005817         840
 m_ireduce_z_to                          0.005618        9856
 apply_gfac_der_mu                       0.005005         960
 orthch                                  0.004499           1
 overl1                                  0.004356         616
 forloc                                  0.004167           1
 strnlr                                  0.004158           1
 stufak                                  0.003936           1
 apply_gfac_weight_mu                    0.003797         960
 crpa_reader                             0.003448           1
 chggra                                  0.003314           1
 pothar                                  0.003239          14
 strelo                                  0.002937           1
 racc0_acc                               0.002702         616
 rsp                                     0.002171           1
 w1_projall                              0.001863        1906
 fock_set_gfac_der                       0.001619          48
 fewald                                  0.001366           1
 fornlr                                  0.001264           1
 forhar                                  0.001163           1
 set_charge                              0.000997          11
 hip_init_rocsolver                      0.000602           1
 rcp                                     0.000558           1
 truncate_high_frequency_w1              0.000517        3586
 strkin                                  0.000382           1
 rprolat_der                             0.000327           2
 rproxyz                                 0.000292           2
 map_backward                            0.000237         202
 map_forward                             0.000236         186
 posmap                                  0.000204           2
 fft_gq                                  0.000178          11
 fftbrc_mpi                              0.000120         194
 vectorpot                               0.000091          13
 set_dd_magatom                          0.000069          14
 fordep                                  0.000035           1
 hip_hipfft_makeplans                    0.000015           5
 potlok_metagga                          0.000012          13
 rotate_active_occupied_orbital          0.000001           1
 redis_pw_over_bands                     0.000000           1
 ---------------------------------------------------------------
  summed up times    71.0511670112610     
 
 Accumulative profile
 ====================
 
             routine name                   CPU           calls
 ---------------------------------------------------------------
 total_time                             71.051167           1
 elmin                                  50.753897           1
 fock_all_dblbuf                        42.950483          11
 fock_fwd                               39.464178          88
 force_and_stress                        8.058577           1
 fock_force                              7.253148           1
 eddav                                   6.864453          15
 fock_set_gfac_vkpt                      6.659996         704
 hip_hipfft_makeplan                     4.619314          19
 dllmm_trans_eccp_nl_fock                4.277932        8640
 init_hip                                3.057461           1
 hip_hipfft_makeplans                    2.031023           5
 phaser_hf                               1.722295         752
 fock_ace_acc_apply                      1.002470        1995
 wrk_allocate                            0.888981           1
 m_sumb_d                                0.767960       11248
 lapack                                  0.734704        2746
 rspher_all                              0.710655          46
 phaser                                  0.707552          80
 orthch                                  0.646766           1
 fft3d_mpi                               0.623361       37438
 hamiltmu                                0.620841        2746
 m_alltoall_d                            0.604105       26180
 fock_set_fsg_der                        0.582222           1
 fock_set_fsg                            0.533720           1
 potlok                                  0.433032          13
 strnlr                                  0.394419           1
 raccmu_                                 0.387990        2746
 redis_proj                              0.377540        9370
 orth1                                   0.359006        8262
 redis_pw                                0.352779       11518
 fftbrc_mpi                              0.339284         194
 fftbas_plan_mpi                         0.339164         194
 hip_init_hipblas                        0.323472           1
 choleski                                0.318539          24
 fft3d                                   0.308595       48046
 wfinit                                  0.292679           1
 fock_charge_mu                          0.289100       15040
 rprolat_der                             0.288577           2
 fft_and_gather                          0.261695          94
 rpromu_acc                              0.243326        2214
 m_alltoallv_z                           0.232255         218
 ggaall_grid                             0.225871          13
 batched_fft                             0.212784       29440
 map_forward                             0.208845         186
 set_dd_paw                              0.204087          14
 fftwav_mpi                              0.198889       10802
 newband                                 0.198459        2776
 waitred                                 0.197630          88
 fft3d_mu                                0.192739       28160
 rpromu_hf_acc                           0.187599       23680
 fftwav                                  0.182152       10802
 chggra                                  0.179135           1
 set_charge                              0.170701          11
 rpro_isp                                0.160486          44
 rproxyz                                 0.155907           2
 w1_projall                              0.145505        1906
 overl_mu                                0.143333        2746
 fornlr                                  0.132077           1
 fock_ace_construct                      0.127290          11
 depsum_two_bands_rholm_trace_m          0.126929       15040
 depsum_two_bands_rholm_trace_m          0.120244       15040
 waitgth                                 0.119939          88
 m_bcast_z                               0.112873        3194
 fock_set_gfac_der                       0.111634          48
 w1_copy                                 0.105369       14388
 ggemm                                   0.091911        3586
 proall                                  0.082925           1
 soft_charge_sym                         0.079365          11
 map_backward                            0.078030         202
 racc0mu_hf_acc                          0.073901       15040
 calc_dllmm_trans_and_overl_foc          0.069494       14080
 pw_charge_trace_mu                      0.062772       15040
 setdij_                                 0.061186          40
 depsum_sym                              0.058029          11
 m_bcast_d                               0.056406        5507
 pw_charge_trace_mu_acc                  0.056257       15040
 apply_gfac_exchange_mu_acc              0.053262       14080
 vhamil_trace_mu_acc                     0.051941       14080
 fock_bck                                0.050301          88
 lincom                                  0.048178          54
 map_scatter                             0.046833         218
 dfftw_execute                           0.045724         573
 fftext_mpi                              0.044525        3978
 kinhamil                                0.042903        2746
 racc0mu_acc                             0.041944        2746
 contraction                             0.034690        8640
 w1_dot                                  0.034337         616
 overl                                   0.033044        4654
 augmentation_charge                     0.032310          11
 set_rsgf_all                            0.020341          14
 eccp                                    0.018112         840
 inisym                                  0.017608           1
 apply_precond                           0.014991        1906
 w1_daxpy                                0.014939        1995
 reduce                                  0.013045          88
 vhamil                                  0.012049        2746
 fft_gq                                  0.011907          11
 fordep                                  0.009053           1
 densta                                  0.008612          16
 m_ibcast_z_from                         0.008420       13376
 strelo                                  0.008252           1
 map_gather                              0.007314         218
 pw_charge                               0.006845        2008
 wrk_deallocate                          0.006344           1
 setup_precond                           0.005817         840
 m_ireduce_z_to                          0.005618        9856
 pothar                                  0.005047          14
 apply_gfac_der_mu                       0.005005         960
 fewald                                  0.004830           1
 forloc                                  0.004392           1
 overl1                                  0.004356         616
 stufak                                  0.003936           1
 apply_gfac_weight_mu                    0.003797         960
 crpa_reader                             0.003448           1
 racc0_acc                               0.002702         616
 rsp                                     0.002171           1
 forhar                                  0.001222           1
 hip_init_rocsolver                      0.000602           1
 rcp                                     0.000558           1
 truncate_high_frequency_w1              0.000517        3586
 strkin                                  0.000482           1
 posmap                                  0.000204           2
 vectorpot                               0.000091          13
 set_dd_magatom                          0.000069          14
 potlok_metagga                          0.000012          13
 rotate_active_occupied_orbital          0.000001           1
 redis_pw_over_bands                     0.000000           1
 ---------------------------------------------------------------
 
Profiling took   0.099962  0.056096  0.003125  0.003085 seconds
Profiling took   0.077712 seconds
