# LAMMPS data file written by OVITO Basic 3.12.0

8015 atoms
4 atom types

0.0 53.0854816165 xlo xhi
0.0 53.0854816165 ylo yhi
0.0 53.0854816165 zlo zhi

Masses

1 26.981538  # Al
2 58.6934  # Ni
3 63.546  # Cu
4 91.224  # Zr

Atoms  # atomic

1 1 28.1863357543 7.7184457543 12.9308457543
2 1 4.6681457543 50.8981457543 45.1615457543
3 1 9.6118457543 4.9879457543 45.2963457543
4 1 0.8334457543 48.1766457543 51.4152457543
5 1 28.9410957543 21.9757257543 31.5433957543
6 1 16.7412857543 41.5837457543 41.1559457543
7 1 39.3900457543 16.4066857543 41.1915457543
8 1 11.0918457543 21.7404357543 35.2677457543
9 1 42.2276457543 40.1073457543 42.8519457543
10 1 13.9329457543 20.3452357543 43.5165457543
11 1 29.2007057543 51.7786457543 14.2566457543
12 1 13.6543457543 42.0383457543 9.8165457543
13 1 25.0727697543 48.8397457543 7.4298457543
14 1 45.4791457543 11.3542457543 12.2706457543
15 1 12.0859457543 16.4679357543 16.2964557543
16 1 27.3079857543 25.2473437543 10.7083457543
17 1 4.1413457543 2.1355457543 47.0202457543
18 1 35.0048457543 43.5816457543 2.8735457543
19 1 22.0183157543 33.3144757543 7.7046457543
20 1 48.6781457543 29.4911457543 24.9930243543
21 1 16.7882957543 50.5440457543 45.0606457543
22 1 26.3802357543 34.5558657543 49.1040457543
23 1 45.1373457543 50.8842457543 2.9526457543
24 1 47.7094457543 48.7374457543 34.2554757543
25 1 17.6273057543 52.4702457543 35.0716457543
26 1 40.8752457543 42.2714457543 14.1635457543
27 1 47.2759457543 51.5075457543 13.0686457543
28 1 35.3735457543 18.4426057543 13.5485457543
29 1 25.9911757543 48.4150457543 35.9043457543
30 1 39.7260457543 50.1609457543 35.4755457543
31 1 33.6708257543 47.8533457543 34.2915557543
32 1 19.9250657543 26.7623757543 12.0530457543
33 1 16.3378857543 21.0300157543 33.5905457543
34 1 48.9241457543 37.5307457543 35.6333457543
35 1 25.1546837543 12.7041457543 6.5053457543
36 1 33.7433257543 37.7855457543 19.7804357543
37 1 35.4149457543 38.9773457543 35.4027457543
38 1 14.7643457543 12.8824457543 9.3359457543
39 1 51.6241457543 5.9720457543 36.6616457543
40 1 33.2631457543 24.9267321543 23.7856057543
41 1 50.9528457543 25.0355581543 37.0516457543
42 1 51.6538457543 22.9150557543 41.9018457543
43 1 27.6812657543 30.6889357543 0.1371457543
44 1 19.9534157543 23.8765257543 21.8296657543
45 1 7.4654457543 9.9150457543 6.7366457543
46 1 0.0094457543 40.9246457543 11.5331457543
47 1 41.0186457543 17.2014157543 36.1541457543
48 1 23.7482157543 49.1345457543 34.6778257543
49 1 17.8641757543 49.6071457543 32.1446157543
50 1 5.0567457543 27.7523757543 48.5529457543
51 1 42.2885457543 9.5448457543 49.1270457543
52 1 1.3670457543 49.0444457543 45.9900457543
53 1 8.9596457543 18.2867857543 1.3727457543
54 1 12.8045457543 24.0221157543 8.4040457543
55 1 17.7956557543 23.0838257543 37.3131457543
56 1 45.9360457543 32.1592657543 40.2769457543
57 1 6.8783457543 45.3888457543 18.8366657543
58 1 0.0867457543 19.6031557543 48.5819457543
59 1 28.0679557543 15.6309857543 24.9266447543
60 1 39.5110457543 36.5821457543 19.3629357543
61 1 15.6350657543 2.7972457543 26.1187457543
62 1 12.1676457543 1.9660457543 10.2876457543
63 1 28.4383357543 24.2841717543 16.6421557543
64 1 42.8780457543 29.6649657543 19.9353157543
65 1 29.0635757543 10.4902457543 29.9428557543
66 1 25.0938257543 33.9212857543 23.3877657543
67 1 52.9634457543 26.2959457543 19.6974457543
68 1 6.0509457543 5.9972457543 13.0512457543
69 1 37.6311457543 23.5543157543 25.3223387543
70 1 38.3292457543 19.8217357543 32.3201857543
71 1 40.5490457543 46.9000457543 48.7212457543
72 1 25.0359854543 3.9219457543 23.3195257543
73 1 45.5369457543 48.4978457543 48.8562457543
74 1 52.1379457543 14.2586457543 27.9418957543
75 1 47.5655457543 25.8568447543 9.0544457543
76 1 13.3061457543 2.9765457543 0.3440457543
77 1 33.0280657543 23.1947457543 47.3211457543
78 1 41.8036457543 30.1886957543 27.0365757543
79 1 23.5039357543 30.8060557543 32.6267857543
80 1 27.5512357543 44.9467457543 18.3163957543
81 1 42.7082457543 50.2206457543 23.4439157543
82 1 47.4514457543 15.2214857543 48.4573457543
83 1 47.0665457543 2.4028457543 10.0558457543
84 1 17.0086957543 16.7414657543 41.4197457543
85 1 14.6523457543 1.8537457543 48.3503457543
86 1 20.9298257543 17.2283257543 49.0723457543
87 1 18.1327557543 29.7118257543 47.0801457543
88 1 36.8084457543 10.2820457543 31.8095057543
89 1 32.4237557543 46.1138457543 32.6926057543
90 1 12.0847457543 26.1176557543 38.2141457543
91 1 40.4501457543 34.5636157543 43.5417457543
92 1 23.2652957543 19.9265657543 5.6779457543
93 1 34.1889257543 50.8774457543 28.3055157543
94 1 22.1121457543 49.2179457543 42.5710457543
95 1 40.6583457543 6.6807457543 44.4480457543
96 1 35.5522457543 38.1783457543 47.9017457543
97 1 21.1311557543 31.4951057543 45.2490457543
98 1 50.9370457543 42.9806457543 29.7622157543
99 1 21.6278457543 33.0225457543 25.8838997543
100 1 24.6443907543 21.9207257543 52.5983457543
101 1 15.2180757543 44.7891457543 38.1836457543
102 1 39.0101457543 44.8284457543 7.9814457543
103 1 6.4153457543 38.5812457543 39.0322457543
104 1 23.4813757543 7.5115457543 37.8982457543
105 1 35.9651457543 14.2613457543 13.1178457543
106 1 36.9435457543 6.6345457543 10.4519457543
107 1 27.8475457543 39.0287457543 35.1788457543
108 1 0.8664457543 1.2017457543 35.1960457543
109 1 11.7907457543 7.3200457543 39.0170457543
110 1 21.8935457543 7.6140457543 42.5215457543
111 1 43.9157457543 30.1080857543 28.2751657543
112 1 17.8674357543 6.8686457543 24.8227307543
113 1 38.4547457543 33.5108257543 2.3236457543
114 1 29.8577157543 49.4800457543 19.4900557543
115 1 20.6469857543 13.9116457543 5.3909457543
116 1 21.5415857543 20.3585057543 12.4578457543
117 1 5.7291457543 3.1499457543 35.2299457543
118 1 40.3229457543 4.9140457543 9.1282457543
119 1 28.9767757543 41.6921457543 16.3654657543
120 1 42.1317457543 0.8698457543 44.5435457543
121 1 4.5673457543 25.1405667543 31.3057757543
122 1 24.7453057543 13.3486457543 50.8666457543
123 1 5.3030457543 20.9713557543 11.2032457543
124 1 46.0486457543 40.4048457543 13.6492457543
125 1 32.2869857543 5.8025457543 20.6474657543
126 1 25.7598167543 27.9043957543 17.1813957543
127 1 18.9796157543 14.3407457543 27.6040357543
128 1 10.8719457543 1.5444457543 28.1967457543
129 1 30.6487057543 42.9176457543 7.2843457543
130 1 35.9289457543 8.7315457543 36.4497457543
131 1 5.1318457543 27.6399857543 40.5993457543
132 1 25.5763937543 25.4224787543 2.6657457543
133 1 3.8056457543 23.3771457543 42.0768457543
134 1 14.7711457543 14.2324457543 4.5430457543
135 1 46.3131457543 5.1690457543 50.1497457543
136 1 2.1429457543 48.5146457543 7.3793457543
137 1 8.5419457543 47.2969457543 36.1596457543
138 1 7.2843457543 37.2496457543 5.8157457543
139 1 46.2426457543 27.8548257543 39.6314457543
140 1 35.0085457543 17.0605457543 17.9530757543
141 1 21.4520657543 38.7597457543 27.9431857543
142 1 39.8687457543 7.8685457543 27.4819057543
143 1 42.2215457543 34.4688957543 13.7400457543
144 1 25.1534317543 44.9571457543 51.5832457543
145 1 41.5538457543 14.0493457543 33.8888157543
146 1 18.9748657543 27.1195357543 5.5952457543
147 1 7.6990457543 15.1961057543 32.7446257543
148 1 36.7565457543 2.8417457543 31.4761757543
149 1 12.7624457543 8.5612457543 33.2957057543
150 1 46.9252457543 15.8133257543 40.6541457543
151 1 34.3985657543 30.4859757543 2.6146457543
152 1 43.4653457543 6.4183457543 12.7823457543
153 1 46.3594457543 43.9253457543 44.1799457543
154 1 39.1128457543 19.7918557543 15.7507457543
155 1 32.5356457543 27.4584757543 48.8576457543
156 1 39.2421457543 38.9283457543 13.0873457543
157 1 50.0701457543 13.0771457543 26.3498457543
158 1 18.3067757543 44.8916457543 5.7886457543
159 1 25.5785207543 38.0504457543 26.7968657543
160 1 39.7443457543 52.7243457543 48.1567457543
161 1 41.4207457543 2.9243457543 52.1412457543
162 1 42.4523457543 39.8273457543 1.2398457543
163 1 12.0409457543 23.4849057543 38.2543457543
164 1 42.8843457543 44.2095457543 51.6467457543
165 1 15.9175557543 22.9183257543 8.6356457543
166 1 44.9146457543 38.9562457543 18.0543257543
167 1 41.3143457543 51.0224457543 9.1851457543
168 1 34.4965357543 41.4530457543 44.9736457543
169 1 14.5383457543 51.6850457543 19.8973957543
170 1 18.8633957543 6.8457457543 11.8495457543
171 1 24.5492507543 40.5845457543 3.9875457543
172 1 31.8143757543 0.3655457543 17.2834657543
173 1 17.5494257543 10.5807457543 22.6219257543
174 1 50.8452457543 36.0417457543 52.2380457543
175 1 51.5007457543 14.5880457543 46.4721457543
176 1 46.9042457543 14.8740457543 50.9147457543
177 1 50.4838457543 9.8985457543 5.8678457543
178 1 12.8068457543 10.1188457543 35.7165457543
179 1 49.1818457543 18.9029957543 5.3462457543
180 1 37.8526457543 42.4021457543 1.5515457543
181 1 33.5018157543 40.8313457543 30.2388957543
182 1 30.6556857543 29.2419357543 28.8520857543
183 1 7.1536457543 29.7078557543 23.9108257543
184 1 13.5908457543 29.7960957543 9.5560457543
185 1 29.0715657543 40.9548457543 6.7999457543
186 1 32.6610357543 45.1130457543 15.8783357543
187 1 5.8621457543 49.1356457543 35.1287457543
188 1 28.8497057543 17.9016757543 50.1648457543
189 1 15.2408957543 2.7472457543 13.7564457543
190 1 22.9729157543 15.7422757543 9.7905457543
191 1 3.3294457543 13.6160457543 21.2957257543
192 1 12.6376457543 29.8074757543 14.1950457543
193 1 34.8206857543 45.5791457543 6.8598457543
194 1 1.0141457543 29.4598557543 26.7640057543
195 1 50.9852457543 12.8243457543 40.1838457543
196 1 39.3097457543 30.6464057543 11.4597457543
197 1 18.1923157543 20.2407157543 44.9327457543
198 1 16.6520457543 11.3070457543 33.8844557543
199 1 19.5879357543 48.9234457543 22.6956357543
200 1 16.4767757543 42.9860457543 30.4138357543
201 1 18.0560657543 34.9282257543 25.6098557543
202 1 36.4947457543 31.3527557543 21.6534457543
203 1 25.5084997543 11.6523457543 37.2174457543
204 1 46.7346457543 5.2737457543 18.6503957543
205 1 26.5536957543 33.1773157543 36.6534457543
206 1 9.6905457543 46.4204457543 25.0257936543
207 1 19.2769257543 17.9109857543 30.7181557543
208 1 27.8017357543 24.9893594543 0.8460457543
209 1 45.6018457543 50.1852457543 15.5606857543
210 1 48.3716457543 47.7956457543 6.9082457543
211 1 32.8380757543 13.9255457543 22.3717857543
212 1 27.2328557543 10.1540457543 20.0575157543
213 1 6.7738457543 11.4354457543 28.2422257543
214 1 14.2308457543 22.7196257543 43.4825457543
215 1 0.4562457543 4.7584457543 49.8668457543
216 1 3.7018457543 9.7008457543 40.2686457543
217 1 43.0925457543 47.1435457543 20.3181457543
218 1 43.7206457543 46.9175457543 41.4642457543
219 1 24.0246687543 31.7711457543 8.1863457543
220 1 10.6593457543 9.6988457543 8.0148457543
221 1 29.9089257543 2.8815457543 10.6774457543
222 1 25.4228217543 51.0339457543 35.1438457543
223 1 42.5902457543 27.0552257543 3.9737457543
224 1 38.6873457543 26.4481257543 41.3312457543
225 1 40.9780457543 43.6296457543 36.5634457543
226 1 31.0632657543 0.5433457543 49.5698457543
227 1 50.2963457543 3.1791457543 26.8708057543
228 1 16.3649257543 30.9929057543 3.1428457543
229 1 30.6599357543 5.4244457543 23.7139257543
230 1 39.2149457543 49.2721457543 39.0198457543
231 1 0.0067457543 50.1131457543 43.1239457543
232 1 8.4757457543 27.6868457543 11.4821457543
233 1 46.8487457543 46.8297457543 30.2311257543
234 1 16.9181357543 50.7802457543 18.8108757543
235 1 53.0401457543 26.6857757543 1.5286457543
236 1 6.3425457543 40.9945457543 20.4339257543
237 1 32.0850457543 30.0915457543 21.3704757543
238 1 26.5362257543 16.9405457543 40.1035457543
239 1 50.8092457543 47.2034457543 7.9481457543
240 1 14.1318457543 21.4479857543 47.6875457543
241 1 43.8417457543 1.9738457543 20.2222057543
242 1 48.6658457543 25.4145477543 40.9874457543
243 1 49.6493457543 7.7752457543 10.7155457543
244 1 7.2681457543 24.6447237543 24.6013777543
245 1 0.7077457543 21.0595257543 24.9210438543
246 1 37.1705457543 23.8857257543 52.8453457543
247 1 1.3456457543 21.1385157543 0.5400457543
248 1 3.9355457543 24.6478887543 2.9731457543
249 1 41.7019457543 23.0895757543 0.0573457543
250 1 40.9503457543 18.0165857543 29.8685157543
251 1 21.2888757543 5.4495457543 44.3776457543
252 1 32.0741057543 39.3014457543 20.3562457543
253 1 23.8250457543 11.6639457543 2.1679457543
254 1 41.2198457543 19.5714957543 22.2276257543
255 1 30.1446457543 18.1723257543 10.3027457543
256 1 35.4633457543 24.9054753543 13.1030457543
257 1 30.4728057543 13.6669457543 37.9066457543
258 1 43.4944457543 3.6235457543 17.4586657543
259 1 48.5542457543 23.9877947543 47.8655457543
260 1 17.3433957543 9.1191457543 36.1405457543
261 1 32.0117657543 48.3249457543 4.4949457543
262 1 39.0154457543 9.6402457543 2.8587457543
263 1 19.7146457543 32.3595057543 29.7968457543
264 1 49.3765457543 5.3271457543 28.6544157543
265 1 2.7783457543 35.9599457543 30.0720057543
266 1 8.5315457543 10.1372457543 32.5599057543
267 1 22.3544457543 3.5737457543 47.7917457543
268 1 37.2934457543 6.3144457543 43.4843457543
269 1 43.6159457543 25.6070937543 37.5357457543
270 1 29.6811057543 3.7093457543 44.3504457543
271 1 35.9029457543 49.9256457543 26.2167657543
272 1 19.5654357543 25.4223897543 32.3639957543
273 1 52.2653457543 34.3563057543 24.4322797543
274 1 14.7960457543 44.6515457543 31.9826757543
275 1 25.1602587543 10.1524457543 15.6124057543
276 1 16.5947557543 20.9202857543 18.6507857543
277 1 26.0079957543 43.5967457543 31.4780857543
278 1 51.6637457543 26.1798257543 24.0023207543
279 1 34.9908457543 15.8964757543 21.4382657543
280 1 4.5965457543 45.3197457543 32.8957457543
281 1 36.7538457543 41.6099457543 52.0480457543
282 1 27.3752557543 34.9049157543 10.0739457543
283 1 50.1966457543 12.2948457543 10.7251457543
284 1 34.3133457543 4.4433457543 35.2854457543
285 1 34.1483357543 3.9117457543 25.9535257543
286 1 37.5915457543 17.8323457543 3.9601457543
287 1 45.7128457543 20.3867057543 29.2710757543
288 1 16.6563957543 5.8173457543 1.8880457543
289 1 40.8222457543 52.8336457543 40.6689457543
290 1 25.1189637543 1.4378457543 38.7774457543
291 1 3.8397457543 5.1316457543 43.2050457543
292 1 28.5268357543 29.5330857543 24.5047557543
293 1 16.7273957543 29.1215457543 13.5443457543
294 1 11.5313457543 16.7354757543 51.3548457543
295 1 35.5938457543 31.2757557543 17.7872057543
296 1 25.3478037543 4.6879457543 15.1274957543
297 1 7.1732457543 24.2138067543 51.4235457543
298 1 20.7793157543 0.5259457543 42.7108457543
299 1 35.3343457543 13.5799457543 50.9004457543
300 1 51.1928457543 23.0486157543 5.3214457543
301 1 52.9368457543 49.8500457543 19.8268157543
302 1 23.0950757543 22.2078857543 1.9897457543
303 1 21.6898257543 40.8492457543 13.4992457543
304 1 51.7826457543 21.4233457543 26.1053857543
305 1 46.3618457543 33.4759557543 10.3539457543
306 1 43.7762457543 10.2565457543 22.0264857543
307 1 45.0549457543 42.9638457543 47.2076457543
308 1 8.2745457543 25.6463767543 20.6603457543
309 1 45.3137457543 1.1503457543 39.9111457543
310 1 17.2922157543 17.3442257543 15.4921457543
311 1 39.7738457543 31.5670257543 4.5095457543
312 1 2.8471457543 47.2447457543 32.3121657543
313 1 51.1404457543 7.3278457543 21.0436657543
314 1 37.1218457543 9.0585457543 8.5626457543
315 1 35.2960457543 43.2522457543 27.8875957543
316 1 5.4508457543 31.6362357543 51.9106457543
317 1 35.4997457543 29.0952957543 43.0856457543
318 1 39.2414457543 27.5537457543 11.0410457543
319 1 9.6229457543 40.6408457543 29.4731557543
320 1 38.3770457543 15.9085757543 9.1521457543
321 1 33.4147757543 20.6880657543 35.6115457543
322 1 49.1112457543 19.0919557543 48.8032457543
323 1 40.5757457543 4.6632457543 29.6274957543
324 1 47.2761457543 4.2489457543 12.5265457543
325 1 20.2693057543 30.5455357543 51.8487457543
326 1 36.8858457543 12.9662457543 18.2533157543
327 1 25.6091077543 6.1580457543 21.5851657543
328 1 7.2009457543 24.0919157543 45.9813457543
329 1 51.2776457543 39.3611457543 15.6261257543
330 1 1.5807457543 5.2107457543 0.4908457543
331 1 19.8067757543 41.9519457543 28.2138557543
332 1 14.4597457543 50.4807457543 4.4691457543
333 1 22.3177657543 23.9673557543 20.7976357543
334 1 17.1441257543 1.0564457543 39.6978457543
335 1 4.0213457543 45.6942457543 20.2456757543
336 1 12.8748457543 35.0744457543 7.6215457543
337 1 32.1473757543 4.7587457543 27.8856057543
338 1 44.3733457543 25.7775537543 22.1756257543
339 1 34.0947457543 3.1566457543 13.6813457543
340 1 50.9296457543 31.7582257543 39.9052457543
341 1 8.4923457543 38.6510457543 23.9665967543
342 1 22.3889857543 33.9148757543 19.8766057543
343 1 48.9812457543 11.8197457543 46.9547457543
344 1 40.2518457543 18.1865357543 47.6565457543
345 1 34.8839357543 7.5994457543 1.4227457543
346 1 33.6331557543 2.3909457543 32.1931457543
347 1 13.1767457543 27.6130157543 17.4463757543
348 1 42.3680457543 34.6230457543 32.8709757543
349 1 29.7431457543 21.0833557543 4.9756457543
350 1 8.7121457543 20.1155657543 51.0274457543
351 1 31.9057357543 21.7730057543 28.4050357543
352 1 5.9707457543 52.5216457543 1.0757457543
353 1 5.2153457543 15.6862757543 38.0219457543
354 1 46.2756457543 7.3288457543 4.1185457543
355 1 49.8472457543 34.3603657543 9.9877457543
356 1 51.6118457543 9.6889457543 27.9954257543
357 1 33.5497957543 9.0925457543 47.5353457543
358 1 9.3049457543 17.7806257543 20.1875657543
359 1 14.9867457543 48.6390457543 15.6566457543
360 1 25.5148757543 14.2032457543 29.1477757543
361 1 22.7262557543 2.1980457543 21.5634557543
362 1 26.0970857543 49.3716457543 11.3243457543
363 1 40.3721457543 46.5698457543 11.5473457543
364 1 2.8375457543 4.0273457543 31.3892757543
365 1 5.6112457543 37.2864457543 52.3606457543
366 1 16.9668157543 3.9537457543 42.7708457543
367 1 12.2113457543 6.6446457543 29.0780157543
368 1 40.2160457543 12.8256457543 13.3737457543
369 1 6.7345457543 16.7162257543 30.4892357543
370 1 35.4453457543 36.0246457543 4.9761457543
371 1 26.8481457543 14.7143457543 17.8941957543
372 1 0.2591457543 1.4040457543 37.7103457543
373 1 41.4132457543 41.7987457543 45.0835457543
374 1 33.9870157543 52.4155457543 17.9844857543
375 1 20.5897857543 29.2736857543 7.3391457543
376 1 44.1054457543 39.5133457543 37.7194457543
377 1 48.1966457543 45.7763457543 12.3527457543
378 1 19.6791557543 1.5781457543 32.8971857543
379 1 23.2378157543 3.6817457543 14.2278457543
380 1 4.1017457543 42.4480457543 2.5754457543
381 1 15.6774857543 35.4395457543 37.8442457543
382 1 6.0628457543 14.5262457543 10.7607457543
383 1 17.0418457543 41.2808457543 20.1464257543
384 1 49.3284457543 0.4982457543 13.9513457543
385 1 39.2575457543 30.1599857543 31.6742757543
386 1 10.0858457543 24.2910977543 45.1201457543
387 1 23.5123457543 26.8916057543 36.0357457543
388 1 6.3826457543 41.7157457543 34.0216357543
389 1 34.0077957543 6.0866457543 46.9957457543
390 1 45.6990457543 29.2837157543 32.6960357543
391 1 2.3098457543 30.4320157543 28.8328757543
392 1 39.3451457543 47.1149457543 19.9251957543
393 1 33.9818657543 1.9602457543 24.6634477543
394 1 27.0746457543 32.8564157543 28.8267957543
395 1 51.2146457543 51.0814457543 28.2249757543
396 1 47.1374457543 4.3810457543 42.3441457543
397 1 31.7084657543 41.8326457543 38.1578457543
398 1 5.9817457543 2.3357457543 5.9343457543
399 1 28.6320857543 46.4378457543 14.4006457543
400 1 39.7614457543 31.1905857543 16.5326057543
401 1 27.0359457543 0.0978457543 27.8933957543
402 1 15.7092957543 28.9844957543 32.4309157543
403 1 31.7772157543 3.8977457543 39.5552457543
404 1 4.0920457543 0.6986457543 4.4783457543
405 1 38.7812457543 52.9540457543 3.4961457543
406 1 50.8788457543 17.8497557543 25.6777727543
407 1 18.4081157543 45.0684457543 8.3017457543
408 1 30.2933357543 0.8529457543 29.1982857543
409 1 42.6100457543 42.9883457543 32.9290557543
410 1 29.5315657543 15.5388857543 30.1727157543
411 1 9.0476457543 22.1361057543 30.5416157543
412 1 50.0691457543 28.4913757543 51.2190457543
413 1 23.6060357543 9.7491457543 10.5510457543
414 1 3.4080457543 52.2771457543 27.1603257543
415 1 49.7230457543 12.6656457543 34.5299557543
416 1 50.1290457543 8.7926457543 48.1061457543
417 1 37.1673457543 28.1654557543 35.8019457543
418 1 36.4380457543 43.3837457543 14.1381457543
419 1 34.6277557543 52.5061457543 40.4473457543
420 1 30.8933757543 32.1810457543 42.4997457543
421 1 6.4865457543 20.3671457543 5.4675457543
422 1 7.7042457543 38.3696457543 14.7787457543
423 1 22.1974457543 13.9071457543 22.6076357543
424 1 22.4195557543 42.1097457543 7.7624457543
425 1 36.6344457543 26.5267157543 37.7632457543
426 1 39.7333457543 11.6187457543 17.7844557543
427 1 5.8392457543 13.4011457543 45.4119457543
428 1 16.6814557543 51.5631457543 6.2653457543
429 1 25.3399677543 21.8307757543 38.7825457543
430 1 40.6453457543 6.4536457543 22.7447957543
431 1 14.4768457543 7.2227457543 1.2907457543
432 1 27.9321657543 24.7199187543 35.3981457543
433 1 0.0534457543 11.7231457543 31.9459857543
434 1 7.0551457543 17.5891757543 50.1437457543
435 1 3.3354457543 38.8034457543 9.5313457543
436 1 38.9015457543 30.0789357543 34.4234557543
437 1 32.4123057543 21.3690957543 6.0846457543
438 1 16.0410157543 36.5983457543 31.7110757543
439 1 5.6297457543 22.5068557543 35.1142457543
440 1 15.2141757543 39.5803457543 35.9648457543
441 1 39.4680457543 47.4061457543 2.0502457543
442 1 11.2912457543 48.9726457543 32.3076857543
443 1 27.8560157543 51.3547457543 49.7121457543
444 1 34.5234257543 29.3424057543 29.2600057543
445 1 28.9814257543 14.0206457543 43.5457457543
446 1 33.0784257543 38.8854457543 8.0651457543
447 1 19.2176457543 40.6013457543 34.3455857543
448 1 0.7736457543 8.7466457543 17.0225057543
449 1 2.1104457543 33.0915857543 9.3283457543
450 1 49.6266457543 3.6648457543 40.7095457543
451 1 24.0971757543 40.9400457543 37.9210457543
452 1 46.2061457543 23.7339757543 18.3157957543
453 1 14.2942457543 5.0069457543 17.0751757543
454 1 17.1647157543 31.0071957543 20.7598557543
455 1 10.4983457543 41.2128457543 1.8465457543
456 1 16.8712357543 36.7086457543 3.2664457543
457 1 45.0552457543 17.5952357543 46.8450457543
458 1 30.9808957543 10.2006457543 44.4467457543
459 1 44.7745457543 51.1185457543 26.0339257543
460 1 0.3258457543 53.0816457543 52.9173457543
461 1 36.2754457543 43.3822457543 50.0910457543
462 1 18.8196457543 37.5193457543 24.2969567543
463 1 23.9208957543 52.6333457543 10.9949457543
464 1 27.7804457543 25.7552617543 40.1481457543
465 1 11.8590457543 25.6500647543 3.1674457543
466 1 11.3842457543 47.8692457543 6.7974457543
467 1 40.2494457543 31.9084157543 27.1987457543
468 1 23.6797257543 46.9414457543 24.3145787543
469 1 31.9319257543 37.4353457543 38.7113457543
470 1 34.2742457543 10.3530457543 32.2515357543
471 1 13.4849457543 18.1906757543 8.8139457543
472 1 31.0537257543 16.2734457543 25.2858247543
473 1 15.0195857543 39.7921457543 46.6040457543
474 1 13.2165457543 44.6176457543 5.4837457543
475 1 40.0183457543 37.3027457543 27.3803957543
476 1 4.1773457543 36.1858457543 27.3917557543
477 1 41.9083457543 20.8961157543 39.0018457543
478 1 31.5589057543 25.8805907543 11.5314457543
479 1 48.3820457543 10.5989457543 50.9481457543
480 1 14.4185457543 37.7341457543 3.7249457543
481 1 1.8513457543 52.0071457543 14.6214457543
482 1 0.2069457543 18.5963157543 32.1691257543
483 1 21.0738557543 9.6173457543 15.9913257543
484 1 3.4381457543 10.4338457543 10.0408457543
485 1 7.7471457543 12.8992457543 50.5279457543
486 1 21.3872057543 30.8930857543 23.0603957543
487 1 16.0230857543 35.8038457543 20.5571357543
488 1 46.3746457543 29.7038957543 18.4856357543
489 1 23.5611357543 12.9536457543 24.6287277543
490 1 20.5430257543 48.8848457543 5.5826457543
491 1 9.0569457543 32.9712757543 52.1889457543
492 1 43.0947457543 31.1050557543 23.5666557543
493 1 31.9424357543 22.3823957543 50.9137457543
494 1 2.8953457543 23.1375957543 15.4739357543
495 1 48.3073457543 0.9940457543 37.1408457543
496 1 52.3612457543 42.7341457543 18.8607457543
497 1 15.6845357543 18.0141657543 50.3507457543
498 1 1.9796457543 26.5285457543 45.8758457543
499 1 4.4012457543 45.6149457543 47.8475457543
500 1 22.8961157543 33.2992257543 49.0073457543
501 1 37.0895457543 49.0044457543 5.6208457543
502 1 23.7506257543 12.5763457543 16.0393257543
503 1 6.4193457543 35.1310457543 27.8887157543
504 1 50.9974457543 45.7404457543 44.2814457543
505 1 39.0642457543 24.3100757543 23.1975357543
506 1 38.0649457543 24.8819209543 44.6576457543
507 1 20.0517557543 45.0940457543 48.9892457543
508 1 19.2817457543 52.0294457543 50.3227457543
509 1 15.5032957543 17.0621557543 46.3875457543
510 1 48.1088457543 9.0454457543 46.1815457543
511 1 40.7148457543 1.7912457543 3.8043457543
512 1 13.8877457543 46.2965457543 34.1435657543
513 1 32.5609057543 43.1051457543 35.7964457543
514 1 21.0821757543 25.6365407543 25.4052507543
515 1 5.1933457543 16.8648757543 3.5413457543
516 1 3.2085457543 26.4970957543 43.5458457543
517 1 48.6435457543 36.0615457543 26.3763357543
518 1 37.3661457543 37.6116457543 3.2828457543
519 1 40.3726457543 34.1015657543 46.4914457543
520 1 14.9597757543 36.5803457543 8.2163457543
521 1 30.1411557543 49.5762457543 30.9044057543
522 1 38.2045457543 45.1206457543 18.8021957543
523 1 17.5029557543 0.1785457543 23.0327457543
524 1 40.9328457543 51.7232457543 21.8003757543
525 1 5.7284457543 8.4020457543 34.9024557543
526 1 9.6310457543 32.2795257543 29.0909557543
527 1 49.7303457543 52.0932457543 23.1226757543
528 1 47.9791457543 17.0296757543 2.3040457543
529 1 24.0168067543 23.3417757543 50.6781457543
530 1 14.2333457543 12.4759457543 39.1110457543
531 1 44.8992457543 12.8586457543 28.1455457543
532 1 18.0296257543 9.4506457543 8.5773457543
533 1 30.1695457543 27.7528057543 0.5736457543
534 1 34.0697457543 21.0697457543 1.8025457543
535 1 33.7447857543 36.4127457543 0.1124457543
536 1 8.1991457543 37.9043457543 44.6535457543
537 1 12.7447457543 7.8586457543 43.6025457543
538 1 13.9215457543 24.6703677543 17.5673257543
539 1 3.0318457543 42.8134457543 12.0323457543
540 1 6.6204457543 8.2676457543 1.9020457543
541 1 27.1655457543 6.0998457543 33.2931657543
542 1 47.0573457543 33.4154957543 34.2737657543
543 1 21.5391757543 19.5847157543 15.4463957543
544 1 50.8113457543 21.1514057543 16.9138857543
545 1 5.9982457543 21.8349357543 1.0110457543
546 1 52.0994457543 45.9522457543 6.3414457543
547 1 27.5611857543 8.2143457543 9.5456457543
548 1 16.4002157543 1.9003457543 44.2186457543
549 1 7.2137457543 4.2243457543 49.2534457543
550 1 30.9658657543 8.2811457543 35.8139457543
551 1 37.1692457543 5.8894457543 15.0298657543
552 1 43.0011457543 0.7413457543 33.4165757543
553 1 3.8400457543 30.3014457543 18.9341957543
554 1 31.9614957543 33.8800957543 44.8349457543
555 1 22.6801857543 33.2999657543 33.7712457543
556 1 13.4201457543 7.5539457543 10.5329457543
557 1 21.8123357543 5.9573457543 49.3499457543
558 1 51.3678457543 52.2919457543 43.4103457543
559 1 12.3199457543 0.5933457543 40.8018457543
560 1 6.2432457543 52.1696457543 24.1375647543
561 1 32.0225357543 49.4075457543 47.4622457543
562 1 28.5370457543 7.5542457543 15.6193057543
563 1 50.7129457543 43.1934457543 52.5056457543
564 1 22.7103757543 6.8905457543 27.7811757543
565 1 12.9523457543 6.3260457543 48.3870457543
566 1 52.6772457543 33.5908657543 45.8453457543
567 1 49.9358457543 47.9966457543 24.9442024243
568 1 35.1237457543 18.9505357543 42.3397457543
569 1 35.3174457543 19.5251457543 24.2843347543
570 1 42.8410457543 15.5199257543 16.1369757543
571 1 30.6805157543 21.9742257543 43.6785457543
572 1 47.1715457543 33.2608957543 14.8764457543
573 1 45.5271457543 51.4784457543 40.4171457543
574 1 2.9297457543 13.7213457543 25.5728217543
575 1 17.8035557543 25.5951897543 17.9980057543
576 1 37.1916457543 23.7852857543 11.4334457543
577 1 25.4686867543 35.9445457543 31.6728457543
578 1 23.7552657543 8.6246457543 6.2958457543
579 1 2.9498457543 17.1468657543 14.3003457543
580 1 40.6146457543 15.7574057543 44.0188457543
581 1 22.8690257543 15.7488357543 31.2410257543
582 1 51.2309457543 51.7383457543 18.8368857543
583 1 5.9991457543 15.9891857543 28.0042957543
584 1 31.8844357543 11.2238457543 7.0552457543
585 1 50.4327457543 25.9225537543 2.5512457543
586 1 41.3708457543 4.2597457543 39.7130457543
587 1 4.7816457543 40.5054457543 38.5121457543
588 1 8.2661457543 38.5093457543 52.0522457543
589 1 47.6105457543 34.5813157543 31.7125457543
590 1 28.0293457543 37.0604457543 30.5721257543
591 1 51.4706457543 3.3483457543 16.6341057543
592 1 7.7558457543 48.6150457543 19.8281157543
593 1 12.3714457543 33.7722457543 2.0684457543
594 1 26.5645157543 7.4117457543 47.2709457543
595 1 51.3701457543 17.5218557543 39.3986457543
596 1 30.1669157543 45.1924457543 45.3293457543
597 1 44.0225457543 40.8864457543 5.7933457543
598 1 52.2648457543 40.4246457543 22.2191157543
599 1 51.6582457543 31.0016557543 17.5668457543
600 1 8.5298457543 38.5484457543 36.8778457543
601 1 14.5999457543 9.4643457543 17.6366557543
602 1 4.8760457543 29.3114557543 22.1509157543
603 1 22.8422957543 5.0256457543 10.1430457543
604 1 10.0791457543 34.9390457543 30.2557157543
605 1 40.2362457543 16.9939757543 2.3450457543
606 1 39.1981457543 42.6356457543 29.5226657543
607 1 41.2465457543 49.1583457543 1.5131457543
608 1 19.5689157543 19.3506757543 13.7615457543
609 1 52.2310457543 13.5349457543 0.5856457543
610 1 35.1461457543 44.9478457543 23.5393057543
611 1 24.6461387543 26.1197957543 49.6069457543
612 1 20.7443057543 9.6310457543 24.6305957543
613 1 46.6954457543 0.8033457543 52.3964457543
614 1 16.4380457543 21.0478557543 27.2671957543
615 1 48.8368457543 12.4477457543 38.8874457543
616 1 21.1371957543 2.6314457543 38.1369457543