conf.lmp (written by ASE) 

648 	 atoms 
2  atom types
0.0                 18.6206  xlo xhi
0.0                 18.6206  ylo yhi
0.0                 18.6206  zlo zhi


Atoms 

     1   1      2.3000000000000003      6.2800000000000002      1.1300000000000001
     2   2      1.3700000000000001      6.2599999999999998                     1.5
     3   2      2.3100000000000001      5.8899999999999997     0.21000000000000002
     4   1                    2.25                    2.75     -8.6600000000000001
     5   2      2.6000000000000001      2.5800000000000001     -7.7400000000000002
     6   2      1.3700000000000001      2.3000000000000003     -8.7799999999999994
     7   1                    0.19      3.6799999999999997      6.4700000000000006
     8   2                   -0.63      4.1099999999999994      6.8600000000000003
     9   2   -0.089999999999999997      2.9499999999999997      5.8399999999999999
    10   1      5.6899999999999995     -5.8699999999999992     -6.9699999999999998
    11   2      4.7599999999999998     -5.9399999999999995     -7.3399999999999999
    12   2      5.7999999999999998     -4.9800000000000004     -6.5300000000000002
    13   1     -3.0699999999999998     -3.5099999999999998      7.0299999999999994
    14   2     -3.6399999999999997     -3.6699999999999999      7.8399999999999999
    15   2     -3.6600000000000001     -3.4100000000000001      6.2300000000000004
    16   1     -1.1899999999999999      6.1799999999999997      8.5600000000000005
    17   2    -0.85999999999999988      7.1199999999999992      8.5600000000000005
    18   2    -0.68000000000000005      5.6399999999999997      9.2200000000000006
    19   1     -7.2699999999999996      7.0299999999999994      7.1699999999999999
    20   2     -6.7000000000000002      7.8100000000000005      6.9199999999999999
    21   2     -7.8700000000000001                    7.29      7.9300000000000006
    22   1     -1.0700000000000001      6.0700000000000003      2.3100000000000001
    23   2     -1.1899999999999999      5.9399999999999995      1.3200000000000001
    24   2     -1.3700000000000001      5.2599999999999998      2.8000000000000003
    25   1      7.6799999999999997     -7.1799999999999997     -8.3900000000000006
    26   2      6.8999999999999995     -7.0099999999999998                   -7.79
    27   2      8.0199999999999996     -6.3100000000000005                   -8.75
    28   1                     8.5      7.9800000000000004    -0.39000000000000001
    29   2      8.4599999999999991      8.7400000000000002     0.26000000000000001
    30   2      8.7200000000000006      8.3399999999999999                    -1.3
    31   1      6.8500000000000005                    -8.5      6.6500000000000004
    32   2                    7.54     -8.6600000000000001      7.3499999999999996
    33   2      6.1200000000000001     -7.9300000000000006      7.0299999999999994
    34   1      6.8600000000000003     -7.0099999999999998    -0.58999999999999997
    35   2                    7.46     -6.2199999999999998    -0.44999999999999996
    36   2                       6     -6.7000000000000002                      -1
    37   1      3.3500000000000001     -4.2699999999999996     -8.0099999999999998
    38   2      2.5700000000000003     -4.5800000000000001     -8.5399999999999991
    39   2      3.9300000000000002     -3.6899999999999999     -8.5800000000000001
    40   1     -4.0200000000000005     -3.5699999999999998     -5.2300000000000004
    41   2     -3.7800000000000002     -2.6299999999999999     -4.9699999999999998
    42   2     -4.1799999999999997     -4.1099999999999994     -4.4100000000000001
    43   1      4.3799999999999999      3.9199999999999999     -3.6299999999999999
    44   2      5.2000000000000002      3.3600000000000003                   -3.54
    45   2      3.5699999999999998      3.3400000000000003     -3.5899999999999999
    46   1     -2.5899999999999999      4.4699999999999998      7.3700000000000001
    47   2     -3.3300000000000001      4.9299999999999997       6.870000000000001
    48   2     -2.0800000000000001      5.1500000000000004      7.9000000000000004
    49   1      2.3100000000000001                   -1.49      4.8300000000000001
    50   2      2.6500000000000004    -0.71999999999999997      5.3700000000000001
    51   2                    2.75                   -1.49      3.9300000000000002
    52   1     -7.3499999999999996                   -5.21     -1.7199999999999998
    53   2      -6.879999999999999                   -5.21    -0.84000000000000008
    54   2     -7.8300000000000001     -6.0800000000000001     -1.8300000000000001
    55   1      2.3000000000000003     -4.2800000000000002      5.3800000000000008
    56   2                    2.04     -3.3200000000000003      5.3800000000000008
    57   2      1.5900000000000001     -4.8200000000000003      5.8300000000000001
    58   1      2.3999999999999999                   -7.71      8.8599999999999994
    59   2                    2.54     -8.5500000000000007       9.379999999999999
    60   2      1.8500000000000001     -7.0699999999999994      9.4100000000000001
    61   1      6.2000000000000002    -0.76000000000000001     -4.2299999999999995
    62   2      5.2800000000000002    -0.92999999999999994     -3.8799999999999999
    63   2      6.4800000000000004                    0.16     -3.9700000000000002
    64   1      6.0599999999999996     -8.9800000000000004                    1.23
    65   2      6.1299999999999999     -8.1399999999999988     0.69000000000000006
    66   2      6.5200000000000005     -8.8499999999999996      2.1099999999999999
    67   1     -2.6800000000000002      1.1400000000000001     -3.8200000000000003
    68   2     -2.8599999999999999      1.8100000000000001                   -4.54
    69   2                   -2.71      1.6000000000000001     -2.9299999999999997
    70   1                    1.22      6.4299999999999997       5.629999999999999
    71   2     0.77000000000000002      5.5500000000000007      5.7999999999999998
    72   2                    1.21      6.9699999999999998      6.4700000000000006
    73   1    -0.20000000000000001    -0.94999999999999996      3.5899999999999999
    74   2     0.34000000000000002                   -1.24      4.3899999999999997
    75   2     0.10000000000000001   -0.050000000000000003      3.3000000000000003
    76   1     0.27000000000000002     -2.6600000000000001      1.1700000000000002
    77   2    0.080000000000000002     -3.6200000000000001      1.3800000000000001
    78   2   -0.059999999999999998     -2.0800000000000001      1.9199999999999999
    79   1                   -1.73      9.2200000000000006      6.1200000000000001
    80   2    -0.78000000000000003      8.9299999999999997      6.2000000000000002
    81   2     -1.8100000000000001      9.8699999999999992      5.3700000000000001
    82   1                   -2.21                   -7.54      4.3200000000000003
    83   2     -1.3500000000000001     -7.5199999999999996      3.7999999999999998
    84   2     -2.0699999999999998     -7.0699999999999994      5.2000000000000002
    85   1      1.1300000000000001      7.3700000000000001     -2.6500000000000004
    86   2      2.0100000000000002      7.2400000000000002     -2.2000000000000002
    87   2                       1      8.3399999999999999     -2.8699999999999997
    88   1      6.1299999999999999     -4.9699999999999998      7.2599999999999998
    89   2      5.6399999999999997     -5.8399999999999999      7.3499999999999996
    90   2      5.8999999999999995                   -4.54      6.3900000000000006
    91   1     -5.6899999999999995     -6.3399999999999999     -4.3899999999999997
    92   2     -5.3200000000000003     -7.0699999999999994     -4.9699999999999998
    93   2     -5.1699999999999999                   -6.29                   -3.54
    94   1      8.0899999999999999    0.040000000000000001      5.0199999999999996
    95   2      8.4900000000000002     0.94999999999999996      4.9299999999999997
    96   2      7.0899999999999999                    0.12      5.0800000000000001
    97   1      1.9700000000000002     -8.8599999999999994     -5.9799999999999995
    98   2      2.8599999999999999     -9.3100000000000005     -6.1200000000000001
    99   2                    1.24     -9.5099999999999998     -6.1699999999999999
   100   1     -3.3700000000000001      -8.629999999999999      1.8999999999999999
   101   2                      -4     -9.3899999999999988      2.0300000000000002
   102   2     -2.8899999999999997     -8.4499999999999993      2.7600000000000002
   103   1                   -6.75    -0.70000000000000007                   -2.46
   104   2     -6.5099999999999998    -0.10000000000000001     -3.2200000000000002
   105   2     -6.6800000000000006     -1.6500000000000001     -2.7600000000000002
   106   1      3.1699999999999999      2.5099999999999998    -0.60999999999999999
   107   2      3.8799999999999999      3.2200000000000002    -0.55000000000000004
   108   2                    2.29      2.8999999999999999    -0.33000000000000002
   109   1                   -3.96     -4.4500000000000002     -9.0899999999999999
   110   2     -4.5499999999999998     -4.3899999999999997     -8.2899999999999991
   111   2     -4.1099999999999994     -5.3300000000000001     -9.5499999999999989
   112   1     -1.9500000000000002                   -1.48      5.7199999999999998
   113   2     -2.3599999999999999     -1.7100000000000002      4.8399999999999999
   114   2     -2.1299999999999999     -2.2200000000000002      6.3700000000000001
   115   1      5.9799999999999995                    7.29      2.7000000000000002
   116   2      6.2199999999999998      7.9800000000000004                    2.02
   117   2      5.2000000000000002      7.6200000000000001      3.2400000000000002
   118   1     -5.8099999999999996      3.4499999999999997     -9.1799999999999997
   119   2     -6.6699999999999999      2.9499999999999997     -9.3100000000000005
   120   2     -5.1900000000000004      2.9099999999999997     -8.6199999999999992
   121   1     -2.8599999999999999                      -2      3.0699999999999998
   122   2     -1.9700000000000002                   -1.54      3.1000000000000001
   123   2     -3.0699999999999998     -2.2400000000000002      2.1200000000000001
   124   1      8.0700000000000003      6.0499999999999998     -3.9700000000000002
   125   2      7.5999999999999996      6.0199999999999996     -3.0800000000000001
   126   2      7.5600000000000005                     5.5     -4.6299999999999999
   127   1     -4.6800000000000006      4.6899999999999995     -1.8799999999999999
   128   2     -4.8799999999999999      5.1200000000000001                      -1
   129   2     -3.9000000000000004      4.0699999999999994                   -1.79
   130   1     -8.8900000000000006      8.9000000000000004     -2.8999999999999999
   131   2     -8.4299999999999997      8.0600000000000005     -3.1899999999999999
   132   2     -9.4499999999999993      9.2400000000000002     -3.6499999999999999
   133   1     -8.7100000000000009      4.0999999999999996     -6.2000000000000002
   134   2     -9.4800000000000004      4.4400000000000004     -5.6599999999999993
   135   2     -9.0500000000000007      3.5899999999999999     -6.9899999999999993
   136   1     -8.2099999999999991      7.0099999999999998                    4.29
   137   2     -7.9500000000000002      6.9699999999999998                    5.25
   138   2     -9.0600000000000005                     6.5      4.1499999999999995
   139   1     0.76000000000000001      8.1100000000000012      7.8900000000000006
   140   2                    1.75      7.9900000000000002      7.9800000000000004
   141   2     0.52000000000000002      9.0600000000000005      8.1000000000000014
   142   1                     1.3    -0.41000000000000003     -2.9099999999999997
   143   2                     1.2    -0.56000000000000005     -1.9199999999999999
   144   2     0.43999999999999995   -0.050000000000000003                   -3.27
   145   1      8.6500000000000004      3.4799999999999995      1.9500000000000002
   146   2      9.2400000000000002      4.1099999999999994                    1.46
   147   2      8.8399999999999999                    2.54      1.6600000000000001
   148   1     -1.4299999999999999      5.8499999999999996                   -0.31
   149   2     -1.6900000000000002      6.7400000000000002    -0.67000000000000004
   150   2                   -1.45      5.1699999999999999                   -1.04
   151   1                      -5     -7.1799999999999997      5.4500000000000002
   152   2     -4.1699999999999999     -7.4699999999999998      4.9699999999999998
   153   2     -5.4900000000000002     -6.5099999999999998      4.8899999999999997
   154   1                     5.5                    1.96      8.8499999999999996
   155   2      5.4500000000000002      1.9100000000000001      9.8499999999999996
   156   2      5.5200000000000005      2.9199999999999999      8.5600000000000005
   157   1     -8.5399999999999991     -4.0600000000000005      4.7699999999999996
   158   2                      -9     -3.3400000000000003                    4.25
   159   2     -8.5800000000000001     -3.8600000000000003                    5.75
   160   1      3.5099999999999998    -0.60999999999999999      8.5299999999999994
   161   2      4.0099999999999998                   -1.47      8.5899999999999999
   162   2      4.1600000000000001                    0.16                     8.5
   163   1    -0.67000000000000004     -7.9600000000000009      8.7300000000000004
   164   2                   -1.29     -8.1100000000000012      7.9700000000000006
   165   2     -1.1899999999999999     -7.8500000000000005      9.5800000000000001
   166   1     -6.3499999999999996     -3.1200000000000001     -3.5599999999999996
   167   2                   -6.29     -3.8900000000000001     -2.9199999999999999
   168   2      -6.870000000000001     -3.3800000000000003     -4.3600000000000003
   169   1                    3.21     -9.1900000000000013      2.4199999999999999
   170   2      4.0300000000000002     -8.8000000000000007                       2
   171   2      2.9399999999999999     -10.009999999999998      1.9300000000000002
   172   1                   -4.04      7.3499999999999996      7.2799999999999994
   173   2     -4.0899999999999999      6.7000000000000002      8.0300000000000011
   174   2     -3.2400000000000002      7.9400000000000004      7.4100000000000001
   175   1      4.6100000000000003                   -5.96     -1.3500000000000001
   176   2      4.1099999999999994     -5.9499999999999993                   -2.21
   177   2      3.9800000000000004     -6.1399999999999997    -0.58999999999999997
   178   1     -7.5099999999999998    -0.85999999999999988      2.3700000000000001
   179   2     -8.1100000000000012                   -1.48      2.8699999999999997
   180   2     -7.1999999999999993                    -1.3                    1.52
   181   1                    2.02      2.8499999999999996     -3.6399999999999997
   182   2                    1.22      3.4499999999999997                   -3.77
   183   2      1.9199999999999999      2.3599999999999999     -2.7800000000000002
   184   1     -2.3000000000000003     -4.8499999999999996     0.81000000000000005
   185   2     -2.6200000000000001     -3.9100000000000001     0.70999999999999996
   186   2     -3.0600000000000001     -5.4800000000000004     0.69000000000000006
   187   1      4.6400000000000006     -1.1899999999999999                    3.23
   188   2      4.9699999999999998    -0.80000000000000004      4.0899999999999999
   189   2      5.4000000000000004                   -1.26      2.5800000000000001
   190   1     -4.6200000000000001      1.0700000000000001      4.2599999999999998
   191   2     -4.8599999999999994     0.70000000000000007      3.3600000000000003
   192   2     -3.6299999999999999                    1.23      4.2999999999999998
   193   1      2.4900000000000002    -0.77000000000000002                   -6.21
   194   2      3.0600000000000001     -1.4199999999999999     -5.7099999999999991
   195   2      2.3300000000000001     -1.1000000000000001     -7.1399999999999997
   196   1     -9.2200000000000006     -1.6400000000000001      9.0400000000000009
   197   2     -8.4199999999999999                   -2.21                    9.25
   198   2     -9.7099999999999991                   -2.04      8.2699999999999996
   199   1      3.8200000000000003                       7      4.7999999999999998
   200   2      4.2699999999999996      6.0999999999999996      4.7699999999999996
   201   2      2.8799999999999999      6.8899999999999997      5.1299999999999999
   202   1     -3.1499999999999999      2.2200000000000002     -1.3300000000000001
   203   2     -3.2000000000000002      2.5899999999999999    -0.41000000000000003
   204   2     -3.8700000000000001                    1.53                   -1.45
   205   1      6.1399999999999997                    1.22      1.1700000000000002
   206   2      7.1199999999999992                       1                    1.24
   207   2      5.8300000000000001                    1.05     0.23999999999999999
   208   1      7.8100000000000005      2.6400000000000001     -1.1300000000000001
   209   2      8.4800000000000004      2.0300000000000002    -0.70000000000000007
   210   2      7.0800000000000001      2.8299999999999996    -0.47999999999999998
   211   1      8.8800000000000008     -3.4799999999999995     -6.6699999999999999
   212   2      8.6500000000000004                   -3.73     -7.6100000000000003
   213   2      9.4900000000000002     -4.1699999999999999     -6.2800000000000002
   214   1     -5.1100000000000003      5.8999999999999995                   -4.29
   215   2     -4.8300000000000001      5.4700000000000006     -3.4399999999999995
   216   2     -4.8599999999999994      6.8600000000000003     -4.2800000000000002
   217   1      8.0300000000000011     -4.6000000000000005      9.2400000000000002
   218   2      8.9299999999999997                   -4.46      8.8200000000000003
   219   2      7.3200000000000003     -4.5800000000000001      8.5299999999999994
   220   1      9.2200000000000006      5.0300000000000002      8.9900000000000002
   221   2      8.9700000000000006      4.9399999999999995      8.0300000000000011
   222   2      9.6999999999999993                    4.21      9.3000000000000007
   223   1      5.3900000000000006     0.64000000000000001      5.1200000000000001
   224   2      4.5800000000000001     0.65000000000000002      5.6999999999999993
   225   2      5.4199999999999999                    1.47      4.5700000000000003
   226   1     -4.2800000000000002     -6.7400000000000002     0.41000000000000003
   227   2                   -3.96                    -7.5     0.97999999999999998
   228   2     -5.2000000000000002     -6.4700000000000006     0.70999999999999996
   229   1      2.9699999999999998     0.35000000000000003      1.7100000000000002
   230   2                    3.46      1.1899999999999999                     1.5
   231   2      3.5899999999999999    -0.29999999999999999      2.1600000000000001
   232   1     -9.2699999999999996      2.3599999999999999      4.7999999999999998
   233   2                   -9.75      2.7700000000000005      4.0200000000000005
   234   2     -8.2799999999999994      2.3400000000000003      4.6100000000000003
   235   1     -7.8600000000000003      6.8300000000000001     -3.9800000000000004
   236   2     -8.6600000000000001      6.2199999999999998     -3.9500000000000002
   237   2     -7.0499999999999998      6.2999999999999998     -4.2199999999999998
   238   1     -6.3499999999999996     -2.9199999999999999      7.9300000000000006
   239   2     -6.1399999999999997     -2.1800000000000002      7.2799999999999994
   240   2     -5.6699999999999999     -2.9199999999999999      8.6600000000000001
   241   1      4.5899999999999999     -7.0999999999999996      7.4100000000000001
   242   2      3.8799999999999999     -7.3700000000000001      8.0600000000000005
   243   2      4.3300000000000001     -7.3799999999999999      6.4800000000000004
   244   1     -5.9100000000000001    -0.65000000000000002      5.9100000000000001
   245   2     -5.4700000000000006                   -0.01      5.2700000000000005
   246   2     -6.4100000000000001                   -0.13      6.6100000000000003
   247   1     -8.2999999999999989      5.4900000000000002                    0.16
   248   2     -8.7100000000000009      6.3100000000000005    -0.22999999999999998
   249   2     -7.6600000000000001                    5.75      0.8899999999999999
   250   1     0.78000000000000003      5.5600000000000005     -4.7599999999999998
   251   2      1.7000000000000002      5.5500000000000007     -5.1699999999999999
   252   2     0.71999999999999997      6.2999999999999998     -4.0899999999999999
   253   1      5.6100000000000003      2.2200000000000002     -7.1499999999999995
   254   2      5.9900000000000002      1.3800000000000001     -6.7800000000000002
   255   2      4.7299999999999995      2.4100000000000001     -6.7100000000000009
   256   1      8.6600000000000001                    4.54      6.4199999999999999
   257   2      8.3399999999999999      5.2599999999999998      5.7999999999999998
   258   2      8.9000000000000004                    3.73      5.8899999999999997
   259   1     -8.4499999999999993     0.39000000000000001      7.5300000000000002
   260   2     -9.1699999999999999     0.43999999999999995      6.8400000000000007
   261   2     -8.6899999999999995    -0.29999999999999999      8.2199999999999989
   262   1     -4.3300000000000001     -6.8899999999999997      8.6699999999999999
   263   2     -4.8799999999999999     -7.7300000000000004      8.5999999999999996
   264   2     -4.0699999999999994     -6.6000000000000005                    7.75
   265   1                   -3.96      5.8999999999999995     -8.6999999999999993
   266   2     -4.2599999999999998      4.9500000000000002      -8.629999999999999
   267   2                   -3.23      6.0599999999999996     -8.0400000000000009
   268   1   -0.050000000000000003      8.3300000000000001                    3.77
   269   2                    0.37      7.6900000000000004      4.4100000000000001
   270   2    -0.42999999999999994      7.8200000000000003      2.9899999999999998
   271   1      4.8799999999999999     -4.7699999999999996      1.7399999999999998
   272   2      4.0099999999999998     -4.9199999999999999                    2.21
   273   2                    4.71     -4.5099999999999998     0.79000000000000004
   274   1                   -1.98     -5.8199999999999994      6.5700000000000003
   275   2    -0.98999999999999999     -5.7399999999999993      6.7100000000000009
   276   2     -2.4299999999999997     -4.9800000000000004       6.879999999999999
   277   1     -4.7199999999999998                    5.75     0.78000000000000003
   278   2     -5.2599999999999998      5.5400000000000009      1.5900000000000001
   279   2     -3.8100000000000001      5.3399999999999999     0.86999999999999988
   280   1      5.2700000000000005      2.5600000000000001      3.2800000000000002
   281   2      5.5400000000000009      1.9700000000000002      2.5300000000000002
   282   2      5.2700000000000005      3.5099999999999998      2.9699999999999998
   283   1     -1.0800000000000001     -6.3900000000000006     -2.7400000000000002
   284   2    -0.17000000000000001     -6.7800000000000002     -2.8699999999999997
   285   2                      -1     -5.4300000000000006                    -2.5
   286   1     -7.9800000000000004     -5.1500000000000004     -5.2200000000000006
   287   2     -8.7799999999999994     -5.3800000000000008     -4.6699999999999999
   288   2     -7.1499999999999995     -5.4100000000000001     -4.7299999999999995
   289   1     -2.7000000000000002     -2.3300000000000001     -2.3700000000000001
   290   2     -2.4299999999999997     -1.9900000000000002                   -3.27
   291   2     -1.9100000000000001                   -2.71     -1.9100000000000001
   292   1     -7.5099999999999998     -6.6699999999999999     -7.6200000000000001
   293   2     -7.9100000000000001     -6.2300000000000004     -6.8100000000000005
   294   2     -7.9199999999999999     -6.2999999999999998     -8.4499999999999993
   295   1     -2.2400000000000002     -7.6299999999999999     -7.8300000000000001
   296   2     -2.1899999999999999     -6.8200000000000003     -7.2400000000000002
   297   2     -3.1000000000000001     -7.6100000000000003     -8.3399999999999999
   298   1      9.1500000000000004      0.8899999999999999     -4.6000000000000005
   299   2      9.3999999999999986     0.69000000000000006     -5.5500000000000007
   300   2      9.8699999999999992                    1.45     -4.1799999999999997
   301   1     -8.8200000000000003                   -7.46     -1.4299999999999999
   302   2     -9.8100000000000005     -7.4000000000000004     -1.3300000000000001
   303   2     -8.5899999999999999     -8.2599999999999998     -1.9900000000000002
   304   1      7.0499999999999998      -8.120000000000001      3.6799999999999997
   305   2      6.9099999999999993     -8.0500000000000007      4.6699999999999999
   306   2      7.8900000000000006      -8.629999999999999                     3.5
   307   1      4.0999999999999996       8.129999999999999     -6.1099999999999994
   308   2                    4.96                    8.25     -5.6100000000000003
   309   2      3.6799999999999997      7.2599999999999998     -5.8399999999999999
   310   1     -5.8799999999999999      3.8600000000000003                      -6
   311   2     -5.6699999999999999      4.6000000000000005     -5.3600000000000003
   312   2     -6.7700000000000005      4.0300000000000002     -6.4299999999999997
   313   1     0.64000000000000001                   -2.98     -5.3100000000000005
   314   2     0.17999999999999999     -2.1600000000000001     -5.6499999999999995
   315   2      1.6200000000000001                   -2.79     -5.2200000000000006
   316   1      3.6699999999999999     -7.6200000000000001      5.0099999999999998
   317   2      3.5999999999999996     -6.7900000000000009      4.4500000000000002
   318   2                    3.71     -8.4199999999999999      4.4100000000000001
   319   1      5.6599999999999993      5.3700000000000001      8.6500000000000004
   320   2      5.7799999999999994      6.0299999999999994      7.9100000000000001
   321   2      6.1200000000000001      5.7099999999999991      9.4800000000000004
   322   1     -6.0999999999999996     -5.1400000000000006      3.8799999999999999
   323   2     -5.6000000000000005     -4.3700000000000001      4.2800000000000002
   324   2     -7.0499999999999998     -5.1200000000000001      4.2000000000000002
   325   1     -5.8999999999999995     -4.1699999999999999     -7.1999999999999993
   326   2     -5.4300000000000006                   -4.04     -6.3300000000000001
   327   2     -6.5600000000000005     -4.9100000000000001     -7.1099999999999994
   328   1     -2.8000000000000003      6.3900000000000006      4.7199999999999998
   329   2     -3.1099999999999999                       7      5.4500000000000002
   330   2     -2.3000000000000003      6.9099999999999993      4.0300000000000002
   331   1                    3.54     -3.5199999999999996     -5.3300000000000001
   332   2      3.3300000000000001                   -3.96     -6.2000000000000002
   333   2      4.5099999999999998     -3.2600000000000002     -5.3000000000000007
   334   1      4.0200000000000005      7.5099999999999998     -2.6400000000000001
   335   2      4.6999999999999993      8.0600000000000005     -3.1099999999999999
   336   2      4.4199999999999999      6.6300000000000008     -2.3700000000000001
   337   1                   -2.75                    7.79     -1.9199999999999999
   338   2     -3.6699999999999999      8.1699999999999999     -1.9700000000000002
   339   2     -2.1499999999999999      8.2599999999999998     -2.5700000000000003
   340   1     -8.4900000000000002                    1.05    -0.91999999999999993
   341   2     -8.4299999999999997      1.8999999999999999     -1.4399999999999999
   342   2     -8.1699999999999999     0.29000000000000004                   -1.49
   343   1                    5.04                     0.5                   -1.22
   344   2      4.6200000000000001   -0.070000000000000007     -1.9199999999999999
   345   2      4.3799999999999999      1.1899999999999999    -0.89999999999999991
   346   1      5.7299999999999995      8.6999999999999993     -8.3300000000000001
   347   2      6.1699999999999999      9.5899999999999999     -8.4199999999999999
   348   2      5.0999999999999996      8.6999999999999993     -7.5600000000000005
   349   1     -5.0199999999999996      8.6199999999999992     -8.1699999999999999
   350   2     -5.7699999999999996      8.6199999999999992     -8.8300000000000001
   351   2     -4.6500000000000004      7.7000000000000002     -8.0800000000000001
   352   1     -6.5300000000000002                    5.25                    2.75
   353   2     -6.4000000000000004      4.4100000000000001                    3.29
   354   2     -6.8200000000000003      5.9900000000000002      3.3500000000000001
   355   1      3.0699999999999998      2.1299999999999999     -6.3100000000000005
   356   2      2.8399999999999999                     2.5     -5.4100000000000001
   357   2      2.7700000000000005      1.1799999999999999     -6.3700000000000001
   358   1                    0.37     -5.5200000000000005     -5.7999999999999998
   359   2     0.89999999999999991     -6.0099999999999998     -5.1200000000000001