 vasp.6.4.2 20Jul23 (build Apr 13 2026 09:14:55) complex                        
  
 executed on             LinuxIFC date 2026.05.08  11:18:32
 running    4 mpi-ranks, with    8 threads/rank, on    1 nodes
 distrk:  each k-point on    4 cores,    1 groups
 distr:  one band on NCORE=   1 cores,    4 groups


--------------------------------------------------------------------------------------------------------


 INCAR:
   PREC = Medium
   ENCUT = 400
   SYSTEM = cristobalite (high) bulk
   NWRITE = 2
   NELM = 40
   NELMIN = 5
   EDIFF = 10e-6
   EDIFFG = -0.050
   NSW = 1
   ISIF = 2
   IBRION = 2
   SIGMA = 0.05
   LREAL = .TRUE.
   GGA = 91
   IALGO = 48
   NSIM = 8
   LPLANE = .TRUE.
   LSCALU = .FALSE.
   LCHARG = .FALSE.
   LWAVE = .FALSE.
   NCORE = 1

 POTCAR:    US Si                                 
 POTCAR:    US O                                  
 POTCAR:    US H                                  
 POTCAR:    US Si                                 
   VRHFIN =Si: s2p2                                                                                 
   LEXCH  = 91                                                                                      
   EATOM  =   115.8331 eV,    8.5135 Ry                                                             
   TITEL  = US Si                                                                                   
   LULTRA =        T    use ultrasoft PP ?                                                          
   IUNSCR =        1    unscreen: 0-lin 1-nonlin 2-no                                               
   RPACOR =    1.580    partial core radius                                                         
   POMASS =   28.085; ZVAL   =    4.000    mass and valenz                                          
   RCORE  =    2.480    outmost cutoff radius                                                       
   RWIGS  =    2.480; RWIGS  =    1.312    wigner-seitz radius (au A)                               
   ENMAX  =  150.615; ENMIN  =  112.961 eV                                                          
   EAUG   =  241.919                                                                                
                                                                                                    
   ICORE  =        2    local potential                                                             
   LCOR   =        T    correct aug charges                                                         
   RMAX   =    3.757    core radius for proj-oper                                                   
   QCUT   =   -3.327; QGAM   =    6.654    optimization parameters                                  
                                                                                                    
   Description                                                                                      
     l     E      TYP  RCUT    TYP  RCUT                                                            
     0   .000     15  2.210    23  2.480                                                            
     0   .000     15  2.210    23  2.480                                                            
     1   .000     15  2.210    23  2.480                                                            
     1   .000     15  2.210    23  2.480                                                            
     2   .000      7  2.480     7  2.480                                                            
  local pseudopotential read in
  partial core-charges read in
  atomic valenz-charges read in
  non local Contribution for L=           0  read in
    real space projection operators read in
  non local Contribution for L=           0  read in
    real space projection operators read in
  non local Contribution for L=           1  read in
    real space projection operators read in
  non local Contribution for L=           1  read in
    real space projection operators read in
    augmentation charges read in
 
   number of l-projection  operators is LMAX  =           4
   number of lm-projection operators is LMMAX =           8
 
 POTCAR:    US O                                  
   VRHFIN =O: s2p4                                                                                  
   LEXCH  = 91                                                                                      
   EATOM  =   429.1268 eV,   31.5399 Ry                                                             
   TITEL  = US O                                                                                    
   LULTRA =        T    use ultrasoft PP ?                                                          
   IUNSCR =        0    unscreen: 0-lin 1-nonlin 2-no                                               
   RPACOR =     .000    partial core radius                                                         
   POMASS =   16.000; ZVAL   =    6.000    mass and valenz                                          
   RCORE  =    1.550    outmost cutoff radius                                                       
   RWIGS  =    1.400; RWIGS  =     .741    wigner-seitz radius (au A)                               
   ENMAX  =  395.994; ENMIN  =  296.995 eV                                                          
   EAUG   =  700.000                                                                                
                                                                                                    
   ICORE  =        2    local potential                                                             
   LCOR   =        T    correct aug charges                                                         
   RMAX   =    2.317    core radius for proj-oper                                                   
   QCUT   =   -5.395; QGAM   =   10.790    optimization parameters                                  
                                                                                                    
   Description                                                                                      
     l     E      TYP  RCUT    TYP  RCUT                                                            
     0   .000     15  1.130    23  1.400                                                            
     0   .000     15  1.130    23  1.400                                                            
     1   .000     15  1.130    23  1.550                                                            
     1   .000     15  1.130    23  1.550                                                            
     2   .000      7  1.550     7  1.550                                                            
  local pseudopotential read in
  atomic valenz-charges read in
  non local Contribution for L=           0  read in
    real space projection operators read in
  non local Contribution for L=           0  read in
    real space projection operators read in
  non local Contribution for L=           1  read in
    real space projection operators read in
  non local Contribution for L=           1  read in
    real space projection operators read in
    augmentation charges read in
 
   number of l-projection  operators is LMAX  =           4
   number of lm-projection operators is LMMAX =           8
 
 POTCAR:    US H                                  
   VRHFIN =H: ultrasoft test                                                                        
   LEXCH  = 91                                                                                      
   EATOM  =    12.5294 eV,     .9209 Ry                                                             
   TITEL  = US H                                                                                    
   LULTRA =        T    use ultrasoft PP ?                                                          
   IUNSCR =        0    unscreen: 0-lin 1-nonlin 2-no                                               
   RPACOR =     .000    partial core radius                                                         
   POMASS =    1.000; ZVAL   =    1.000    mass and valenz                                          
   RCORE  =    1.250    outmost cutoff radius                                                       
   RWIGS  =     .570; RWIGS  =     .302    wigner-seitz radius (au A)                               
   ENMAX  =  200.000; ENMIN  =  200.000 eV  200 eV set by hand                                      
   EAUG   =  400.000    set by hand                                                                 
                                                                                                    
   RCLOC  =     .654    cutoff for local pot                                                        
   LCOR   =        T    correct aug charges                                                         
   RMAX   =    3.000    core radius for proj-oper                                                   
   QCUT   =   -3.834; QGAM   =    7.668    optimization parameters                                  
                                                                                                    
   Description                                                                                      
     l     E      TYP  RCUT    TYP  RCUT                                                            
     0   .000     15   .800    23  1.250                                                            
     0   .500     15   .800    23  1.250                                                            
     1  -.200     15   .800    23  1.250                                                            
  local pseudopotential read in
  atomic valenz-charges read in
  non local Contribution for L=           0  read in
    real space projection operators read in
  non local Contribution for L=           0  read in
    real space projection operators read in
  non local Contribution for L=           1  read in
    real space projection operators read in
    augmentation charges read in
 
   number of l-projection  operators is LMAX  =           3
   number of lm-projection operators is LMMAX =           5
 
  US Si                                 :
 energy of atom  1       EATOM= -115.8331
 kinetic energy error for atom=    0.0002 (will be added to EATOM!!)
  US O                                  :
 energy of atom  2       EATOM= -429.1268
 kinetic energy error for atom=    0.0560 (will be added to EATOM!!)
  US H                                  :
 energy of atom  3       EATOM=  -12.5294
 kinetic energy error for atom=    0.0018 (will be added to EATOM!!)
 
 
 POSCAR: Si O H
  positions in direct lattice
  velocities in cartesian coordinates
 exchange correlation table for  LEXCH =        7
   RHO(1)=    0.500       N(1)  =     2000
   RHO(2)=  100.500       N(2)  =     4000
 


--------------------------------------------------------------------------------------------------------


 ion  position               nearest neighbor table
   1  0.327  0.172  0.375-  97 1.62 121 1.63 193 1.63 209 1.63
   2  0.834  0.165  0.349- 210 1.62 122 1.62 194 1.63  98 1.63  38 3.11
   3  0.334  0.666  0.349- 211 1.62 123 1.62 195 1.63  99 1.63  39 3.11  11 3.14
   4  0.826  0.672  0.375- 100 1.62 124 1.63 196 1.63 212 1.63
   5  0.165  0.333  0.564- 165 1.62 201 1.63 113 1.63 185 1.64
   6  0.679  0.322  0.539- 114 1.61 166 1.62 202 1.64 186 1.66  58 3.12  50 3.12
   7  0.179  0.822  0.538- 115 1.61 167 1.62 203 1.64 187 1.65  59 3.11  51 3.12
   8  0.665  0.833  0.564- 116 1.62 204 1.63 168 1.64 188 1.64
   9  0.255  0.246  0.283- 101 1.62  69 1.63  89 1.63  97 1.63
  10  0.750  0.251  0.310-  70 1.62  90 1.62 102 1.63  98 1.64
  11  0.251  0.751  0.308-  71 1.62  91 1.62 103 1.63  99 1.64   3 3.14
  12  0.754  0.746  0.282- 104 1.62  72 1.63  92 1.63 100 1.63  44 3.14
  13  0.003  0.265  0.302- 210 1.62  73 1.62  81 1.64  93 1.64
  14  0.484  0.247  0.302-  82 1.62 209 1.63  74 1.63  94 1.63
  15  0.983  0.747  0.302-  83 1.62 212 1.63  75 1.63  95 1.63
  16  0.503  0.765  0.302- 211 1.62  76 1.62  84 1.64  96 1.64
  17  0.323  0.411  0.336-  69 1.62 109 1.62 117 1.62  85 1.62  21 3.04
  18  0.839  0.428  0.335- 118 1.61 110 1.62  70 1.62  86 1.63  22 3.09
  19  0.339  0.928  0.333- 119 1.61 111 1.62  71 1.62  87 1.63  23 3.10
  20  0.822  0.910  0.337- 112 1.62  72 1.62  88 1.62 120 1.62  24 3.05
  21  0.323  0.408  0.489- 109 1.61 113 1.62 207 1.62 105 1.63  17 3.04  35 3.15
  22  0.843  0.429  0.490- 110 1.61 114 1.62 208 1.62 106 1.63  18 3.09
  23  0.343  0.929  0.489- 111 1.61 205 1.62 115 1.62 107 1.63  19 3.10
  24  0.822  0.908  0.489- 112 1.61 116 1.62 206 1.62 108 1.63  20 3.05  34 3.15
  25  0.149  0.073  0.554- 161 1.63 153 1.63 125 1.66 141 1.67
  26  0.675  0.099  0.553- 162 1.63 142 1.63 126 1.66 154 1.66
  27  0.175  0.599  0.553- 163 1.63 143 1.63 127 1.66 155 1.66
  28  0.648  0.573  0.554- 164 1.63 156 1.63 128 1.66 144 1.66
  29  0.424  0.350  0.554- 105 1.63 178 1.63 145 1.66 133 1.67
  30  0.899  0.325  0.551- 106 1.63 134 1.63 146 1.65 177 1.66
  31  0.398  0.825  0.552- 107 1.63 135 1.63 147 1.65 180 1.66
  32  0.923  0.850  0.555- 108 1.63 179 1.63 148 1.65 136 1.67
  33  0.419  0.089  0.564- 157 1.62 137 1.63 205 1.64 129 1.64
  34  0.928  0.073  0.537- 158 1.62 206 1.62 138 1.64 130 1.65  38 3.12  24 3.15  49 3.15
  35  0.428  0.573  0.535- 159 1.62 207 1.62 139 1.65 131 1.65  39 3.12  52 3.14  21 3.15
  36  0.918  0.588  0.564- 208 1.62 140 1.63 160 1.64 132 1.64
  37  0.325  0.174  0.536- 121 1.63 129 1.64 141 1.67 133 1.67
  38  0.842  0.157  0.504- 122 1.62 142 1.64 134 1.64 130 1.65   2 3.11  34 3.12
  39  0.342  0.657  0.504- 123 1.62 143 1.64 135 1.64 131 1.65   3 3.11  35 3.12
  40  0.825  0.674  0.536- 124 1.63 132 1.64 136 1.67 144 1.67
  41  0.088  0.175  0.332- 173 1.61  89 1.61 169 1.62  73 1.62  49 3.09
  42  0.573  0.161  0.335- 174 1.62  90 1.62 170 1.62  74 1.62  50 3.06
  43  0.073  0.661  0.333- 175 1.61 171 1.62  91 1.62  75 1.62  51 3.08
  44  0.589  0.675  0.332-  92 1.62 176 1.62 172 1.62  76 1.62  52 3.09  12 3.14
  45  0.499  0.497  0.311- 172 1.62 117 1.63 149 1.63 182 1.64
  46  0.005  0.495  0.284- 118 1.62 171 1.62 150 1.62 181 1.63
  47  0.505  0.996  0.284- 151 1.62 119 1.63 170 1.63 184 1.63
  48  0.999  0.997  0.311- 169 1.62 120 1.63 152 1.63 183 1.64
  49  0.092  0.175  0.487- 173 1.61 158 1.62 165 1.62 161 1.63  41 3.09  34 3.15
  50  0.575  0.160  0.488- 174 1.61 157 1.62 166 1.62 162 1.63  42 3.06   6 3.12
  51  0.076  0.660  0.487- 175 1.61 160 1.62 167 1.63 163 1.63  43 3.08   7 3.12
  52  0.592  0.675  0.486- 176 1.61 168 1.62 159 1.62 164 1.63  44 3.09  35 3.14
  53  0.079  0.421  0.375- 181 1.62 189 1.62  81 1.63  77 1.63
  54  0.584  0.414  0.354-  78 1.61  82 1.62 190 1.62 182 1.63  58 3.12
  55  0.084  0.913  0.354-  79 1.61  83 1.62 191 1.62 183 1.63  59 3.12
  56  0.578  0.921  0.375- 184 1.62 192 1.63  84 1.63  80 1.64
  57  0.076  0.423  0.536- 189 1.63 185 1.64 177 1.67 155 1.67
  58  0.592  0.404  0.509- 190 1.62 178 1.64 156 1.64 186 1.65  54 3.12   6 3.12
  59  0.091  0.905  0.509- 191 1.62 179 1.63 153 1.64 187 1.65   7 3.11  55 3.12
  60  0.575  0.923  0.536- 192 1.63 188 1.64 154 1.67 180 1.67
  61  0.236  0.497  0.301-  77 1.62  85 1.62 195 1.63 197 1.64
  62  0.752  0.515  0.303-  78 1.62  86 1.63 196 1.63 198 1.64
  63  0.251  0.015  0.302-  79 1.61  87 1.63 193 1.63 199 1.64
  64  0.735  0.997  0.301-  88 1.62  80 1.63 194 1.63 200 1.64
  65  0.247  0.751  0.634- 213 1.62 203 1.65 147 1.66 127 1.66
  66  0.496  0.503  0.634- 214 1.63 139 1.65 145 1.66 128 1.66
  67  0.749  0.250  0.635- 215 1.62 146 1.65 202 1.66 126 1.66
  68  0.996  0.003  0.635- 216 1.62 148 1.65 138 1.66 125 1.67
  69  0.294  0.336  0.292-  17 1.62   9 1.63
  70  0.791  0.338  0.330-  10 1.62  18 1.62
  71  0.291  0.838  0.327-  11 1.62  19 1.62
  72  0.793  0.835  0.293-  20 1.62  12 1.63
  73  0.041  0.214  0.307-  41 1.62  13 1.62
  74  0.534  0.207  0.308-  42 1.62  14 1.63
  75  0.033  0.706  0.308-  43 1.62  15 1.63
  76  0.540  0.713  0.308-  44 1.62  16 1.62
  77  0.167  0.463  0.354-  61 1.62  53 1.63
  78  0.664  0.463  0.318-  54 1.61  62 1.62
  79  0.164  0.963  0.319-  55 1.61  63 1.61
  80  0.666  0.964  0.354-  64 1.63  56 1.64
  81  0.040  0.333  0.356-  53 1.63  13 1.64
  82  0.537  0.335  0.314-  54 1.62  14 1.62
  83  0.037  0.835  0.314-  55 1.62  15 1.62
  84  0.540  0.833  0.356-  56 1.63  16 1.64
  85  0.288  0.460  0.309-  17 1.62  61 1.62
  86  0.792  0.465  0.305-  18 1.63  62 1.63
  87  0.292  0.965  0.304-  19 1.63  63 1.63
  88  0.786  0.959  0.309-  20 1.62  64 1.62
  89  0.165  0.208  0.290-  41 1.61   9 1.63
  90  0.662  0.212  0.331-  42 1.62  10 1.62
  91  0.163  0.712  0.325-  43 1.62  11 1.62
  92  0.664  0.708  0.288-  44 1.62  12 1.63
  93  0.013  0.300  0.226- 217 0.97  13 1.64
  94  0.447  0.232  0.227- 218 0.97  14 1.63
  95  0.946  0.732  0.228- 219 0.97  15 1.63
  96  0.513  0.798  0.226- 220 0.97  16 1.64
  97  0.286  0.210  0.337-   1 1.62   9 1.63
  98  0.787  0.209  0.349-   2 1.63  10 1.64
  99  0.287  0.709  0.351-   3 1.63  11 1.64
 100  0.784  0.709  0.337-   4 1.62  12 1.63
 101  0.275  0.235  0.207- 221 0.97   9 1.62
 102  0.759  0.248  0.229- 222 0.97  10 1.63
 103  0.264  0.746  0.228- 223 0.97  11 1.63
 104  0.776  0.735  0.207- 224 0.97  12 1.62
 105  0.373  0.370  0.505-  29 1.63  21 1.63
 106  0.881  0.378  0.504-  30 1.63  22 1.63
 107  0.381  0.878  0.504-  31 1.63  23 1.63
 108  0.872  0.869  0.507-  32 1.63  24 1.63
 109  0.295  0.386  0.413-  21 1.61  17 1.62
 110  0.858  0.454  0.413-  22 1.61  18 1.62
 111  0.357  0.952  0.411-  23 1.61  19 1.62
 112  0.795  0.887  0.413-  24 1.61  20 1.62
 113  0.250  0.380  0.536-  21 1.62   5 1.63
 114  0.755  0.381  0.502-   6 1.61  22 1.62
 115  0.254  0.881  0.501-   7 1.61  23 1.62
 116  0.749  0.880  0.536-  24 1.62   8 1.62
 117  0.413  0.459  0.335-  17 1.62  45 1.63
 118  0.916  0.458  0.296-  18 1.61  46 1.62
 119  0.416  0.959  0.293-  19 1.61  47 1.63
 120  0.912  0.959  0.334-  20 1.62  48 1.63
 121  0.319  0.180  0.455-   1 1.63  37 1.63
 122  0.849  0.147  0.424-  38 1.62   2 1.62
 123  0.350  0.647  0.425-  39 1.62   3 1.62
 124  0.819  0.681  0.455-   4 1.63  40 1.63
 125  0.086  0.047  0.614-  25 1.66  68 1.67
 126  0.703  0.161  0.615-  26 1.66  67 1.66
 127  0.203  0.661  0.615-  27 1.66  65 1.66
 128  0.586  0.545  0.615-  28 1.66  66 1.66
 129  0.370  0.129  0.549-  37 1.64  33 1.64
 130  0.882  0.118  0.546-  38 1.65  34 1.65
 131  0.383  0.619  0.546-  35 1.65  39 1.65
 132  0.871  0.631  0.549-  40 1.64  36 1.64
 133  0.371  0.259  0.569-  29 1.67  37 1.67
 134  0.883  0.246  0.518-  30 1.63  38 1.64
 135  0.383  0.747  0.518-  31 1.63  39 1.64
 136  0.872  0.759  0.569-  32 1.67  40 1.67
 137  0.429  0.086  0.645- 236 0.97  33 1.63
 138  0.955  0.047  0.603-  34 1.64  68 1.66
 139  0.456  0.547  0.602-  35 1.65  66 1.65
 140  0.924  0.581  0.644- 238 0.97  36 1.63
 141  0.239  0.125  0.568-  25 1.67  37 1.67
 142  0.753  0.114  0.520-  26 1.63  38 1.64
 143  0.253  0.614  0.520-  27 1.63  39 1.64
 144  0.739  0.625  0.569-  28 1.66  40 1.67
 145  0.450  0.413  0.614-  29 1.66  66 1.66
 146  0.837  0.297  0.612-  30 1.65  67 1.65
 147  0.336  0.797  0.612-  31 1.65  65 1.66
 148  0.950  0.913  0.615-  68 1.65  32 1.65
 149  0.504  0.485  0.231- 225 0.97  45 1.63
 150  0.021  0.480  0.208- 226 0.97  46 1.62
 151  0.523  0.982  0.208- 227 0.97  47 1.62
 152  0.004  0.986  0.231- 228 0.97  48 1.63
 153  0.135  0.994  0.524-  25 1.63  59 1.64
 154  0.623  0.008  0.568-  26 1.66  60 1.67
 155  0.123  0.509  0.568-  27 1.66  57 1.67
 156  0.635  0.494  0.524-  28 1.63  58 1.64
 157  0.503  0.135  0.535-  50 1.62  33 1.62
 158  0.003  0.127  0.495-  34 1.62  49 1.62
 159  0.502  0.627  0.493-  35 1.62  52 1.62
 160  0.002  0.635  0.532-  51 1.62  36 1.64
 161  0.130  0.124  0.505-  25 1.63  49 1.63
 162  0.622  0.119  0.507-  50 1.63  26 1.63
 163  0.123  0.619  0.507-  27 1.63  51 1.63
 164  0.628  0.624  0.506-  28 1.63  52 1.63
 165  0.125  0.250  0.531-  49 1.62   5 1.62
 166  0.629  0.249  0.493-   6 1.62  50 1.62
 167  0.129  0.750  0.492-   7 1.62  51 1.63
 168  0.623  0.750  0.530-  52 1.62   8 1.64
 169  0.040  0.086  0.324-  48 1.62  41 1.62
 170  0.546  0.085  0.293-  42 1.62  47 1.63
 171  0.045  0.585  0.291-  43 1.62  46 1.62
 172  0.541  0.586  0.324-  45 1.62  44 1.62
 173  0.111  0.198  0.410-  49 1.61  41 1.61
 174  0.547  0.138  0.412-  50 1.61  42 1.62
 175  0.051  0.638  0.410-  51 1.61  43 1.61
 176  0.613  0.698  0.409-  52 1.61  44 1.62
 177  0.990  0.375  0.566-  30 1.66  57 1.67
 178  0.503  0.364  0.524-  29 1.63  58 1.64
 179  0.002  0.864  0.525-  32 1.63  59 1.63
 180  0.489  0.875  0.568-  31 1.66  60 1.67
 181  0.039  0.460  0.337-  53 1.62  46 1.63
 182  0.539  0.459  0.354-  54 1.63  45 1.64
 183  0.038  0.958  0.353-  55 1.63  48 1.64
 184  0.536  0.959  0.338-  56 1.62  47 1.63
 185  0.120  0.378  0.552-  57 1.64   5 1.64
 186  0.630  0.364  0.551-  58 1.65   6 1.66
 187  0.130  0.864  0.550-  59 1.65   7 1.65
 188  0.618  0.876  0.552-  60 1.64   8 1.64
 189  0.073  0.430  0.455-  53 1.62  57 1.63
 190  0.599  0.395  0.429-  58 1.62  54 1.62
 191  0.098  0.895  0.429-  59 1.62  55 1.62
 192  0.571  0.929  0.455-  56 1.63  60 1.63
 193  0.288  0.084  0.355-  63 1.63   1 1.63
 194  0.787  0.086  0.310-   2 1.63  64 1.63
 195  0.287  0.587  0.310-   3 1.63  61 1.63
 196  0.788  0.584  0.356-  62 1.63   4 1.63
 197  0.197  0.478  0.227- 231 0.97  61 1.64
 198  0.760  0.549  0.227- 232 0.97  62 1.64
 199  0.258  0.048  0.227- 229 0.97  63 1.64
 200  0.697  0.977  0.227- 230 0.97  64 1.64
 201  0.167  0.318  0.644- 239 0.97   5 1.63
 202  0.704  0.292  0.605-   6 1.64  67 1.66
 203  0.203  0.792  0.604-   7 1.64  65 1.65
 204  0.674  0.826  0.644- 237 0.97   8 1.63
 205  0.378  0.005  0.533-  23 1.62  33 1.64
 206  0.874  0.998  0.496-  34 1.62  24 1.62
 207  0.374  0.498  0.494-  35 1.62  21 1.62
 208  0.878  0.504  0.535-  22 1.62  36 1.62
 209  0.415  0.213  0.354-  14 1.63   1 1.63
 210  0.914  0.216  0.313-  13 1.62   2 1.62
 211  0.414  0.716  0.313-  16 1.62   3 1.62
 212  0.914  0.714  0.354-  15 1.63   4 1.63
 213  0.247  0.756  0.715- 233 0.97  65 1.62
 214  0.488  0.509  0.714- 234 0.97  66 1.63
 215  0.750  0.255  0.716- 235 0.97  67 1.62
 216  0.992  0.002  0.716- 240 0.97  68 1.62
 217  0.062  0.320  0.206-  93 0.97
 218  0.480  0.241  0.189-  94 0.97
 219  0.978  0.741  0.189-  95 0.97
 220  0.563  0.820  0.206-  96 0.97
 221  0.266  0.186  0.194- 101 0.97
 222  0.733  0.200  0.207- 102 0.97
 223  0.236  0.699  0.206- 103 0.97
 224  0.768  0.687  0.194- 104 0.97
 225  0.474  0.436  0.212- 149 0.97
 226  0.008  0.430  0.196- 150 0.97
 227  0.510  0.932  0.195- 151 0.97
 228  0.975  0.937  0.212- 152 0.97
 229  0.285  0.037  0.194- 199 0.97
 230  0.729  0.995  0.188- 200 0.97
 231  0.230  0.496  0.188- 197 0.97
 232  0.787  0.536  0.194- 198 0.97
 233  0.217  0.711  0.741- 213 0.97
 234  0.505  0.484  0.744- 214 0.97
 235  0.714  0.212  0.741- 215 0.97
 236  0.386  0.068  0.673- 137 0.97
 237  0.631  0.797  0.672- 204 0.97
 238  0.928  0.620  0.673- 140 0.97
 239  0.196  0.361  0.673- 201 0.97
 240  0.021  0.049  0.740- 216 0.97
 
  LATTYP: Found a hexagonal cell.
 ALAT       =    20.7674000000
 C/A-ratio  =     0.9630478538
  
  Lattice vectors:
  
 A1 = (  20.7674000000,   0.0000000000,   0.0000000000)
 A2 = ( -10.3837000000,  17.9850960000,   0.0000000000)
 A3 = (   0.0000000000,   0.0000000000,  20.0000000000)


Analysis of symmetry for initial positions (statically):
=====================================================================
 Subroutine PRICEL returns:
 Original cell was already a primitive cell.
 

 Routine SETGRP: Setting up the symmetry group for a 
 hexagonal supercell.


 Subroutine GETGRP returns: Found  1 space group operations
 (whereof  1 operations were pure point group operations)
 out of a pool of 24 trial point group operations.


The static configuration has the point symmetry C_1 .


Analysis of symmetry for dynamics (positions and initial velocities):
=====================================================================
 Subroutine PRICEL returns:
 Original cell was already a primitive cell.
 

 Routine SETGRP: Setting up the symmetry group for a 
 hexagonal supercell.


 Subroutine GETGRP returns: Found  1 space group operations
 (whereof  1 operations were pure point group operations)
 out of a pool of 24 trial point group operations.


The dynamic configuration has the point symmetry C_1 .


 Subroutine INISYM returns: Found  1 space group operations
 (whereof  1 operations are pure point group operations),
 and found     1 'primitive' translations


----------------------------------------------------------------------------------------

                                     Primitive cell                                     

  volume of cell :    7470.0737

  direct lattice vectors                    reciprocal lattice vectors
    20.767400000  0.000000000  0.000000000     0.048152393  0.027800797  0.000000000
   -10.383700000 17.985096000  0.000000000     0.000000000  0.055601594  0.000000000
     0.000000000  0.000000000 20.000000000     0.000000000  0.000000000  0.050000000

  length of vectors
    20.767400000 20.767400026 20.000000000     0.055601594  0.055601594  0.050000000

  position of ions in fractional coordinates (direct lattice)
     0.326758415  0.171571646  0.374779774
     0.834286926  0.164966985  0.348949619
     0.334238225  0.665505714  0.349243963
     0.826242233  0.671659355  0.375033032
     0.165127817  0.332698215  0.564198520
     0.679128584  0.321682612  0.539369112
     0.178702199  0.822119669  0.538009239
     0.664923380  0.833072343  0.564224143
     0.254596044  0.246386501  0.282629776
     0.749583748  0.251031148  0.310098181
     0.250719530  0.750735264  0.308157438
     0.754114494  0.745944590  0.282276641
     0.002906891  0.265259207  0.301695526
     0.483869441  0.246683382  0.302116819
     0.983348350  0.746598741  0.302133626
     0.502667380  0.764975786  0.301833285
     0.322790226  0.410787559  0.336374467
     0.838886108  0.427986564  0.335430992
     0.338539788  0.927863069  0.333450146
     0.822160673  0.910274175  0.336737568
     0.322777606  0.408141894  0.488540368
     0.843453629  0.429063874  0.489891593
     0.343386799  0.929258627  0.488579603
     0.822477676  0.908068388  0.489455537
     0.148606859  0.073171906  0.553598775
     0.674736277  0.099042382  0.553254779
     0.174821703  0.599352327  0.553391557
     0.648442548  0.572662149  0.554039980
     0.423766160  0.350289189  0.553838589
     0.898940583  0.324558756  0.551148414
     0.398419194  0.824809219  0.551568637
     0.923490372  0.850415344  0.555162622
     0.418636965  0.088700073  0.564008829
     0.927994279  0.072713346  0.536696103
     0.428381002  0.573189793  0.534979487
     0.918110839  0.588219081  0.563625490
     0.324713673  0.174006809  0.535841650
     0.841960213  0.156539885  0.503988318
     0.342249995  0.657040031  0.503989463
     0.824640030  0.674247665  0.536116512
     0.088469004  0.175260859  0.332232250
     0.572880666  0.160933749  0.335446390
     0.073350937  0.660896952  0.333202034
     0.588810320  0.675355461  0.331790911
     0.498997825  0.496880177  0.311038140
     0.005093048  0.495208871  0.283905761
     0.505153405  0.995711160  0.284024391
     0.998509182  0.996925730  0.310901271
     0.092277002  0.174961690  0.486799115
     0.575428587  0.159895378  0.488477000
     0.075671063  0.659896325  0.487051018
     0.592460722  0.675190495  0.486106591
     0.079479953  0.421491044  0.374903560
     0.584387080  0.413588975  0.353642126
     0.083741228  0.913451319  0.353587155
     0.578219339  0.920997359  0.375264652
     0.076065171  0.423057425  0.535947346
     0.591983403  0.404408477  0.508712655
     0.091278788  0.904667423  0.508676116
     0.575013539  0.922549465  0.536445099
     0.235685113  0.497423454  0.301060983
     0.751875109  0.514908777  0.302615976
     0.251085719  0.014768052  0.302119401
     0.734754150  0.996811106  0.301292537
     0.247298956  0.750920249  0.634424730
     0.495922586  0.503082749  0.634126149
     0.748593997  0.250474250  0.634886106
     0.996345484  0.002597421  0.635050130
     0.293670709  0.335921910  0.292313435
     0.791010787  0.338028881  0.330498448
     0.291100666  0.838083937  0.326800049
     0.793027001  0.835326930  0.292768204
     0.041133840  0.213690112  0.307304492
     0.533661574  0.206545097  0.308278336
     0.032971203  0.706260163  0.308348232
     0.539924086  0.712589890  0.308270892
     0.167229119  0.463065549  0.353932735
     0.664211178  0.463400848  0.318297624
     0.163666487  0.963250641  0.318515238
     0.666020205  0.963540951  0.354024613
     0.040260284  0.333438181  0.355854225
     0.536932958  0.335467666  0.314158248
     0.036789824  0.835372964  0.313969074
     0.540090600  0.833070847  0.356015061
     0.287856409  0.460145064  0.308659590
     0.792431621  0.465167632  0.304830982
     0.291605531  0.965000572  0.304025932
     0.786066130  0.958657949  0.309349449
     0.164834422  0.207925390  0.290159756
     0.662489890  0.212004108  0.330831687
     0.162744778  0.712116630  0.325415260
     0.664122651  0.708285128  0.287936479
     0.013440722  0.299509009  0.226003489
     0.447260346  0.231837199  0.227378156
     0.946402214  0.731617149  0.227546677
     0.513338155  0.798362713  0.225838955
     0.285598256  0.210169162  0.337174554
     0.787176769  0.208508190  0.348916974
     0.287103206  0.709217079  0.350876177
     0.783588708  0.708670257  0.337260948
     0.275084951  0.235265805  0.206740141
     0.758706755  0.248006824  0.229278935
     0.263911504  0.746471263  0.228194836
     0.775974876  0.735067383  0.206904193
     0.373160894  0.369877334  0.504900236
     0.880795049  0.377563997  0.504073575
     0.380704730  0.877755789  0.503858593
     0.872087044  0.869322054  0.506878417
     0.294597373  0.386398489  0.412503660
     0.857897504  0.453688430  0.412580362
     0.357398855  0.952252420  0.410898277
     0.794993609  0.886694654  0.413143115
     0.250156985  0.380321890  0.535809441
     0.754610723  0.380642646  0.501767275
     0.254424958  0.881412354  0.500919723
     0.749267265  0.879971444  0.535697083
     0.412776871  0.459265368  0.334985896
     0.916239625  0.458278286  0.295791708
     0.415892117  0.959365837  0.293353219
     0.912122779  0.958985008  0.334249554
     0.319375201  0.180089716  0.454900022
     0.849406755  0.146984816  0.424410500
     0.349686444  0.647208129  0.424558008
     0.818828493  0.680569179  0.455227255
     0.086053518  0.046933027  0.614089431
     0.703046724  0.160731430  0.614610134
     0.202834284  0.661016483  0.614926503
     0.585760885  0.544830028  0.614748762
     0.369939216  0.129471416  0.548999706
     0.882450002  0.118352761  0.546462374
     0.383115440  0.618934041  0.546188208
     0.870742071  0.630501190  0.549109162
     0.371225490  0.259451976  0.568644876
     0.883309974  0.246117939  0.518036570
     0.383299438  0.746547136  0.518343540
     0.871512397  0.759348642  0.569456117
     0.429242235  0.086263737  0.644513662
     0.955227391  0.046712011  0.603477017
     0.455851579  0.547399614  0.601905431
     0.924244147  0.580754405  0.644140802
     0.239394986  0.125323725  0.568434708
     0.752760884  0.113927783  0.519794970
     0.253086907  0.614291653  0.520315482
     0.739209305  0.625283439  0.568569754
     0.450297956  0.413349322  0.614151638
     0.836975423  0.296732386  0.612122263
     0.335942882  0.797052796  0.612188819
     0.950461988  0.913490691  0.615085259
     0.503805193  0.485361299  0.230834570
     0.020758046  0.479968222  0.207575060
     0.523030705  0.982083242  0.207910362
     0.004109780  0.986146946  0.230732376
     0.135168050  0.994150626  0.523636703
     0.622938828  0.008311275  0.568293913
     0.123427072  0.508650790  0.568474550
     0.635343322  0.493956291  0.523631710
     0.502869771  0.134827386  0.535044823
     0.002782775  0.126904186  0.495394440
     0.502485906  0.627186181  0.492729318
     0.001707919  0.634582707  0.531735112
     0.129677615  0.124176481  0.504640087
     0.622388269  0.118837794  0.507074519
     0.122653818  0.619247833  0.507327977
     0.628322720  0.623627938  0.506218039
     0.124615118  0.250286199  0.530999799
     0.629450630  0.249355958  0.493010598
     0.129068214  0.749576026  0.491950829
     0.623420033  0.750251889  0.530430319
     0.040430700  0.085620774  0.324416252
     0.546110100  0.085478671  0.292627334
     0.044878853  0.585013320  0.290802705
     0.541266670  0.585635587  0.324122700
     0.110668487  0.197808012  0.409545559
     0.547464649  0.138227936  0.412350543
     0.050823063  0.637915637  0.410404299
     0.612879340  0.698081139  0.408952417
     0.989755490  0.375443840  0.565819575
     0.502779189  0.363923883  0.524205625
     0.002404873  0.864414904  0.524773533
     0.488933282  0.875332520  0.567897517
     0.038535773  0.460223116  0.337259058
     0.538841609  0.458782083  0.353630318
     0.038089397  0.958479785  0.353410245
     0.536015609  0.958651444  0.337783308
     0.120125494  0.377860423  0.551758246
     0.630391424  0.363960993  0.551148957
     0.129992276  0.864143133  0.550418069
     0.617667440  0.875890113  0.551585289
     0.073024679  0.430182053  0.454986489
     0.598861875  0.395159003  0.429186439
     0.097663241  0.894900333  0.429228699
     0.571060849  0.929039181  0.455439791
     0.287565859  0.083719765  0.355047616
     0.786875799  0.086375026  0.309677480
     0.286651122  0.587021851  0.309849832
     0.787996750  0.583752025  0.355683981
     0.197287225  0.478418458  0.226721539
     0.760405038  0.548823236  0.227073427
     0.258345074  0.048423939  0.226564751
     0.696632160  0.977344467  0.226803519
     0.167327336  0.318404135  0.644075362
     0.703900645  0.291625920  0.605030373
     0.202972783  0.792013746  0.603908009
     0.674393819  0.826133852  0.644181395
     0.378154164  0.004628487  0.532863936
     0.873671501  0.997708435  0.495502851
     0.373648481  0.497926963  0.494356212
     0.878362957  0.503701129  0.535092132
     0.414549399  0.212764181  0.354229450
     0.914007710  0.216120277  0.313137215
     0.413703135  0.716367893  0.313072091
     0.914045534  0.713504438  0.354266677
     0.247382211  0.756468971  0.715339005
     0.488487137  0.509482090  0.714424653
     0.750346214  0.254796335  0.715909101
     0.991535446  0.002323751  0.715973514
     0.062360252  0.319909419  0.205821509
     0.479645572  0.241453036  0.189184395
     0.978232586  0.741355529  0.188929424
     0.562636555  0.820044370  0.206174641
     0.265857609  0.186268899  0.193723919
     0.733301535  0.200182111  0.206883664
     0.236081217  0.698938145  0.205622166
     0.768159122  0.686504037  0.194206681
     0.474237223  0.435823645  0.212177322
     0.008022245  0.429544105  0.195791420
     0.509630542  0.931724850  0.195197988
     0.974714419  0.936677702  0.211920171
     0.285397279  0.036857663  0.193677713
     0.729155496  0.995137789  0.188121858
     0.229658973  0.496338158  0.187964460
     0.786651155  0.536149351  0.194250005
     0.216750097  0.711416915  0.740537888
     0.505168982  0.483628475  0.743846737
     0.714147550  0.211586753  0.740592986
     0.386126154  0.068051176  0.673409080
     0.630787187  0.797470107  0.671751179
     0.928352866  0.620228085  0.672859884
     0.196175191  0.360540244  0.673189125
     0.021160078  0.048609055  0.739905141

  ion indices of the primitive-cell ions
   primitive index   ion index
                 1           1
                 2           2
                 3           3
                 4           4
                 5           5
                 6           6
                 7           7
                 8           8
                 9           9
                10          10
                11          11
                12          12
                13          13
                14          14
                15          15
                16          16
                17          17
                18          18
                19          19
                20          20
                21          21
                22          22
                23          23
                24          24
                25          25
                26          26
                27          27
                28          28
                29          29
                30          30
                31          31
                32          32
                33          33
                34          34
                35          35
                36          36
                37          37
                38          38
                39          39
                40          40
                41          41
                42          42
                43          43
                44          44
                45          45
                46          46
                47          47
                48          48
                49          49
                50          50
                51          51
                52          52
                53          53
                54          54
                55          55
                56          56
                57          57
                58          58
                59          59
                60          60
                61          61
                62          62
                63          63
                64          64
                65          65
                66          66
                67          67
                68          68
                69          69
                70          70
                71          71
                72          72
                73          73
                74          74
                75          75
                76          76
                77          77
                78          78
                79          79
                80          80
                81          81
                82          82
                83          83
                84          84
                85          85
                86          86
                87          87
                88          88
                89          89
                90          90
                91          91
                92          92
                93          93
                94          94
                95          95
                96          96
                97          97
                98          98
                99          99
               100         100
               101         101
               102         102
               103         103
               104         104
               105         105
               106         106
               107         107
               108         108
               109         109
               110         110
               111         111
               112         112
               113         113
               114         114
               115         115
               116         116
               117         117
               118         118
               119         119
               120         120
               121         121
               122         122
               123         123
               124         124
               125         125
               126         126
               127         127
               128         128
               129         129
               130         130
               131         131
               132         132
               133         133
               134         134
               135         135
               136         136
               137         137
               138         138
               139         139
               140         140
               141         141
               142         142
               143         143
               144         144
               145         145
               146         146
               147         147
               148         148
               149         149
               150         150
               151         151
               152         152
               153         153
               154         154
               155         155
               156         156
               157         157
               158         158
               159         159
               160         160
               161         161
               162         162
               163         163
               164         164
               165         165
               166         166
               167         167
               168         168
               169         169
               170         170
               171         171
               172         172
               173         173
               174         174
               175         175
               176         176
               177         177
               178         178
               179         179
               180         180
               181         181
               182         182
               183         183
               184         184
               185         185
               186         186
               187         187
               188         188
               189         189
               190         190
               191         191
               192         192
               193         193
               194         194
               195         195
               196         196
               197         197
               198         198
               199         199
               200         200
               201         201
               202         202
               203         203
               204         204
               205         205
               206         206
               207         207
               208         208
               209         209
               210         210
               211         211
               212         212
               213         213
               214         214
               215         215
               216         216
               217         217
               218         218
               219         219
               220         220
               221         221
               222         222
               223         223
               224         224
               225         225
               226         226
               227         227
               228         228
               229         229
               230         230
               231         231
               232         232
               233         233
               234         234
               235         235
               236         236
               237         237
               238         238
               239         239
               240         240

----------------------------------------------------------------------------------------

 
 
 KPOINTS: Automatic mesh                          

Automatic generation of k-mesh.
 Grid dimensions read from file:
 generate k-points for:    1    1    1

 Generating k-lattice:

  Cartesian coordinates                     Fractional coordinates (reciprocal lattice)
     0.048152393  0.027800797  0.000000000     1.000000000  0.000000000  0.000000000
     0.000000000  0.055601594  0.000000000     0.000000000  1.000000000  0.000000000
     0.000000000  0.000000000  0.050000000     0.000000000  0.000000000  1.000000000

  Length of vectors
     0.055601594  0.055601594  0.050000000

  Shift w.r.t. Gamma in fractional coordinates (k-lattice)
     0.000000000  0.000000000  0.000000000

 
 Subroutine IBZKPT returns following result:
 ===========================================
 
 Found      1 irreducible k-points:
 
 Following reciprocal coordinates:
            Coordinates               Weight
  0.000000  0.000000  0.000000      1.000000
 
 Following cartesian coordinates:
            Coordinates               Weight
  0.000000  0.000000  0.000000      1.000000
 


--------------------------------------------------------------------------------------------------------




 Dimension of arrays:
   k-points           NKPTS =      1   k-points in BZ     NKDIM =      1   number of bands    NBANDS=    716
   number of dos      NEDOS =    301   number of ions     NIONS =    240
   non local maximal  LDIM  =      4   non local SUM 2l+1 LMDIM =      8
   total plane-waves  NPLWV = ******
   max r-space proj   IRMAX =   5086   max aug-charges    IRDMAX=   8080
   dimension x,y,z NGX =   108 NGY =  108 NGZ =   98
   dimension x,y,z NGXF=   180 NGYF=  180 NGZF=  180
   support grid    NGXF=   180 NGYF=  180 NGZF=  180
   ions per type =              68 148  24
   NGX,Y,Z   is equivalent  to a cutoff of   8.65,  8.65,  8.15 a.u.
   NGXF,Y,Z  is equivalent  to a cutoff of  14.41, 14.41, 14.96 a.u.

 SYSTEM =  cristobalite (high) bulk                
 POSCAR =  Si O H                                  

 Startparameter for this run:
   NWRITE =      2    write-flag & timer
   PREC   = medium    normal or accurate (medium, high low for compatibility)
   ISTART =      0    job   : 0-new  1-cont  2-samecut
   ICHARG =      2    charge: 1-file 2-atom 10-const
   ISPIN  =      1    spin polarized calculation?
   LNONCOLLINEAR =      F non collinear calculations
   LSORBIT =      F    spin-orbit coupling
   INIWAV =      1    electr: 0-lowe 1-rand  2-diag
   LASPH  =      F    aspherical Exc in radial PAW
 Electronic Relaxation 1
   ENCUT  =  400.0 eV  29.40 Ry    5.42 a.u.  33.87 33.87 32.61*2*pi/ulx,y,z
   ENINI  =  400.0     initial cutoff
   ENAUG  =  700.0 eV  augmentation charge cutoff
   NELM   =     40;   NELMIN=  5; NELMDL=-12     # of ELM steps 
   EDIFF  = 0.1E-04   stopping-criterion for ELM
   LREAL  =      T    real-space projection
   NLSPLINE    = F    spline interpolate recip. space projectors
   LCOMPAT=      F    compatible to vasp.4.4
   GGA_COMPAT  = T    GGA compatible to vasp.4.4-vasp.4.6
   LMAXPAW     = -100 max onsite density
   LMAXMIX     =    2 max onsite mixed and CHGCAR
   VOSKOWN=      0    Vosko Wilk Nusair interpolation
   ROPT   =    0.00000   0.00000   0.00000
 Ionic relaxation
   EDIFFG = -.5E-01   stopping-criterion for IOM
   NSW    =      1    number of steps for IOM
   NBLOCK =      1;   KBLOCK =      1    inner block; outer block 
   IBRION =      2    ionic relax: 0-MD 1-quasi-New 2-CG
   NFREE  =      1    steps in history (QN), initial steepest desc. (CG)
   ISIF   =      2    stress and relaxation
   IWAVPR =     11    prediction:  0-non 1-charg 2-wave 3-comb
   ISYM   =      1    0-nonsym 1-usesym 2-fastsym
   LCORR  =      T    Harris-Foulkes like correction to forces

   POTIM  = 0.5000    time-step for ionic-motion
   TEIN   =    0.0    initial temperature
   TEBEG  =    0.0;   TEEND  =   0.0 temperature during run
   SMASS  =  -3.00    Nose mass-parameter (am)
   estimated Nose-frequenzy (Omega)   =  0.10E-29 period in steps = 0.13E+47 mass=  -0.986E-26a.u.
   SCALEE = 1.0000    scale energy and forces
   NPACO  =    256;   APACO  = 10.0  distance and # of slots for P.C.
   PSTRESS=    0.0 pullay stress

  Mass of Ions in am
   POMASS =  28.09 16.00  1.00
  Ionic Valenz
   ZVAL   =   4.00  6.00  1.00
  Atomic Wigner-Seitz radii
   RWIGS  =  -1.00 -1.00 -1.00
  virtual crystal weights 
   VCA    =   1.00  1.00  1.00
   NELECT =    1184.0000    total number of electrons
   NUPDOWN=      -1.0000    fix difference up-down

 DOS related values:
   EMIN   =  10.00;   EMAX   =-10.00  energy-range for DOS
   EFERMI =   0.00;   METHOD = LEGACY      
   ISMEAR =     1;   SIGMA  =   0.05  broadening in eV -4-tet -1-fermi 0-gaus

 Electronic relaxation 2 (details)
   IALGO  =     48    algorithm
   LDIAG  =      T    sub-space diagonalisation (order eigenvalues)
   LSUBROT=      F    optimize rotation matrix (better conditioning)
   TURBO    =      0    0=normal 1=particle mesh
   IRESTART =      0    0=no restart 2=restart with 2 vectors
   NREBOOT  =      0    no. of reboots
   NMIN     =      0    reboot dimension
   EREF     =   0.00    reference energy to select bands
   IMIX   =      4    mixing-type and parameters
     AMIX     =   0.80;   BMIX     =  1.00
     AMIX_MAG =   3.20;   BMIX_MAG =  1.00
     AMIN     =   0.10
     WC   =   100.;   INIMIX=   1;  MIXPRE=   1;  MAXMIX= -45

 Intra band minimization:
   WEIMIN = 0.0010     energy-eigenvalue tresh-hold
   EBREAK =  0.35E-08  absolut break condition
   DEPER  =   0.30     relativ break condition  

   TIME   =   0.40     timestep for ELM

  volume/ion in A,a.u.               =      31.13       210.04
  Fermi-wavevector in a.u.,A,eV,Ry     =   0.885966  1.674233 10.679702  0.784936
  Thomas-Fermi vector in A             =   2.007070
 
 Write flags
   LWAVE        =      F    write WAVECAR
   LDOWNSAMPLE  =      F    k-point downsampling of WAVECAR
   LCHARG       =      F    write CHGCAR
   LVTOT        =      F    write LOCPOT, total local potential
   LVHAR        =      F    write LOCPOT, Hartree potential only
   LELF         =      F    write electronic localiz. function (ELF)
   LORBIT       =      0    0 simple, 1 ext, 2 COOP (PROOUT), +10 PAW based schemes


 Dipole corrections
   LMONO  =      F    monopole corrections only (constant potential shift)
   LDIPOL =      F    correct potential (dipole corrections)
   IDIPOL =      0    1-x, 2-y, 3-z, 4-all directions 
   EPSILON=  1.0000000 bulk dielectric constant

 Exchange correlation treatment:
   GGA     =    91    GGA type
   LEXCH   =     7    internal setting for exchange type
   LIBXC   =     F    Libxc                    
   VOSKOWN =     0    Vosko Wilk Nusair interpolation
   LHFCALC =     F    Hartree Fock is set to
   LHFONE  =     F    Hartree Fock one center treatment
   AEXX    =    0.0000 exact exchange contribution

 Linear response parameters
   LEPSILON=     F    determine dielectric tensor
   LRPA    =     F    only Hartree local field effects (RPA)
   LNABLA  =     F    use nabla operator in PAW spheres
   LVEL    =     F    velocity operator in full k-point grid
   CSHIFT  =0.1000    complex shift for real part using Kramers Kronig
   OMEGAMAX=  -1.0    maximum frequency
   DEG_THRESHOLD= 0.2000000E-02 threshold for treating states as degnerate
   RTIME   =   -0.100 relaxation time in fs
  (WPLASMAI=    0.000 imaginary part of plasma frequency in eV, 0.658/RTIME)
   DFIELD  = 0.0000000 0.0000000 0.0000000 field for delta impulse in time
 
  Optional k-point grid parameters
   LKPOINTS_OPT  =     F    use optional k-point grid
   KPOINTS_OPT_MODE=     1    mode for optional k-point grid
 
 Orbital magnetization related:
   ORBITALMAG=     F  switch on orbital magnetization
   LCHIMAG   =     F  perturbation theory with respect to B field
   DQ        =  0.001000  dq finite difference perturbation B field
   LLRAUG    =     F  two centre corrections for induced B field
   LBONE     =     F  B-component reconstruction in AE one-centre
   LVGVCALC  =     T  calculate vGv susceptibility
   LVGVAPPL  =     F  apply vGv susceptibility instead of pGv for G=0

 Random number generation:
   RANDOM_GENERATOR = DEFAULT
   PCG_SEED         = not used


--------------------------------------------------------------------------------------------------------


 conjugate gradient relaxation of ions
 charge density and potential will be updated during run
 non-spin polarized calculation
 RMM-DIIS sequential band-by-band
 perform sub-space diagonalisation
    before iterative eigenvector-optimisation
 modified Broyden-mixing scheme, WC =      100.0
 initial mixing is a Kerker type mixing with AMIX =  0.8000 and BMIX =      1.0000
 Hartree-type preconditioning will be used
 using additional bands          124
 real space projection scheme for non local part
 use partial core corrections
 calculate Harris-corrections to forces 
   (improved forces if not selfconsistent)
 use gradient corrections 
 use of overlap-Matrix (Vanderbilt PP)
 Methfessel and Paxton  Order N= 1 SIGMA  =   0.05


--------------------------------------------------------------------------------------------------------


  energy-cutoff  :      400.00
  volume of cell :     7470.07
      direct lattice vectors                 reciprocal lattice vectors
    20.767400000  0.000000000  0.000000000     0.048152393  0.027800797  0.000000000
   -10.383700000 17.985096000  0.000000000     0.000000000  0.055601594  0.000000000
     0.000000000  0.000000000 20.000000000     0.000000000  0.000000000  0.050000000

  length of vectors
    20.767400000 20.767400026 20.000000000     0.055601594  0.055601594  0.050000000


 
 k-points in units of 2pi/SCALE and weight: Automatic mesh                          
   0.00000000  0.00000000  0.00000000       1.000
 
 k-points in reciprocal lattice and weights: Automatic mesh                          
   0.00000000  0.00000000  0.00000000       1.000
 
 position of ions in fractional coordinates (direct lattice) 
   0.32675842  0.17157165  0.37477977
   0.83428693  0.16496698  0.34894962
   0.33423823  0.66550571  0.34924396
   0.82624223  0.67165936  0.37503303
   0.16512782  0.33269822  0.56419852
   0.67912858  0.32168261  0.53936911
   0.17870220  0.82211967  0.53800924
   0.66492338  0.83307234  0.56422414
   0.25459604  0.24638650  0.28262978
   0.74958375  0.25103115  0.31009818
   0.25071953  0.75073526  0.30815744
   0.75411449  0.74594459  0.28227664
   0.00290689  0.26525921  0.30169553
   0.48386944  0.24668338  0.30211682
   0.98334835  0.74659874  0.30213363
   0.50266738  0.76497579  0.30183329
   0.32279023  0.41078756  0.33637447
   0.83888611  0.42798656  0.33543099
   0.33853979  0.92786307  0.33345015
   0.82216067  0.91027418  0.33673757
   0.32277761  0.40814189  0.48854037
   0.84345363  0.42906387  0.48989159
   0.34338680  0.92925863  0.48857960
   0.82247768  0.90806839  0.48945554
   0.14860686  0.07317191  0.55359877
   0.67473628  0.09904238  0.55325478
   0.17482170  0.59935233  0.55339156
   0.64844255  0.57266215  0.55403998
   0.42376616  0.35028919  0.55383859
   0.89894058  0.32455876  0.55114841
   0.39841919  0.82480922  0.55156864
   0.92349037  0.85041534  0.55516262
   0.41863696  0.08870007  0.56400883
   0.92799428  0.07271335  0.53669610
   0.42838100  0.57318979  0.53497949
   0.91811084  0.58821908  0.56362549
   0.32471367  0.17400681  0.53584165
   0.84196021  0.15653989  0.50398832
   0.34224999  0.65704003  0.50398946
   0.82464003  0.67424767  0.53611651
   0.08846900  0.17526086  0.33223225
   0.57288067  0.16093375  0.33544639
   0.07335094  0.66089695  0.33320203
   0.58881032  0.67535546  0.33179091
   0.49899783  0.49688018  0.31103814
   0.00509305  0.49520887  0.28390576
   0.50515341  0.99571116  0.28402439
   0.99850918  0.99692573  0.31090127
   0.09227700  0.17496169  0.48679912
   0.57542859  0.15989538  0.48847700
   0.07567106  0.65989633  0.48705102
   0.59246072  0.67519050  0.48610659
   0.07947995  0.42149104  0.37490356
   0.58438708  0.41358898  0.35364213
   0.08374123  0.91345132  0.35358715
   0.57821934  0.92099736  0.37526465
   0.07606517  0.42305743  0.53594735
   0.59198340  0.40440848  0.50871266
   0.09127879  0.90466742  0.50867612
   0.57501354  0.92254946  0.53644510
   0.23568511  0.49742345  0.30106098
   0.75187511  0.51490878  0.30261598
   0.25108572  0.01476805  0.30211940
   0.73475415  0.99681111  0.30129254
   0.24729896  0.75092025  0.63442473
   0.49592259  0.50308275  0.63412615
   0.74859400  0.25047425  0.63488611
   0.99634548  0.00259742  0.63505013
   0.29367071  0.33592191  0.29231344
   0.79101079  0.33802888  0.33049845
   0.29110067  0.83808394  0.32680005
   0.79302700  0.83532693  0.29276820
   0.04113384  0.21369011  0.30730449
   0.53366157  0.20654510  0.30827834
   0.03297120  0.70626016  0.30834823
   0.53992409  0.71258989  0.30827089
   0.16722912  0.46306555  0.35393273
   0.66421118  0.46340085  0.31829762
   0.16366649  0.96325064  0.31851524
   0.66602020  0.96354095  0.35402461
   0.04026028  0.33343818  0.35585422
   0.53693296  0.33546767  0.31415825
   0.03678982  0.83537296  0.31396907
   0.54009060  0.83307085  0.35601506
   0.28785641  0.46014506  0.30865959
   0.79243162  0.46516763  0.30483098
   0.29160553  0.96500057  0.30402593
   0.78606613  0.95865795  0.30934945
   0.16483442  0.20792539  0.29015976
   0.66248989  0.21200411  0.33083169
   0.16274478  0.71211663  0.32541526
   0.66412265  0.70828513  0.28793648
   0.01344072  0.29950901  0.22600349
   0.44726035  0.23183720  0.22737816
   0.94640221  0.73161715  0.22754668
   0.51333816  0.79836271  0.22583896
   0.28559826  0.21016916  0.33717455
   0.78717677  0.20850819  0.34891697
   0.28710321  0.70921708  0.35087618
   0.78358871  0.70867026  0.33726095
   0.27508495  0.23526581  0.20674014
   0.75870675  0.24800682  0.22927894
   0.26391150  0.74647126  0.22819484
   0.77597488  0.73506738  0.20690419
   0.37316089  0.36987733  0.50490024
   0.88079505  0.37756400  0.50407357
   0.38070473  0.87775579  0.50385859
   0.87208704  0.86932205  0.50687842
   0.29459737  0.38639849  0.41250366
   0.85789750  0.45368843  0.41258036
   0.35739885  0.95225242  0.41089828
   0.79499361  0.88669465  0.41314312
   0.25015699  0.38032189  0.53580944
   0.75461072  0.38064265  0.50176727
   0.25442496  0.88141235  0.50091972
   0.74926727  0.87997144  0.53569708
   0.41277687  0.45926537  0.33498590
   0.91623962  0.45827829  0.29579171
   0.41589212  0.95936584  0.29335322
   0.91212278  0.95898501  0.33424955
   0.31937520  0.18008972  0.45490002
   0.84940676  0.14698482  0.42441050
   0.34968644  0.64720813  0.42455801
   0.81882849  0.68056918  0.45522725
   0.08605352  0.04693303  0.61408943
   0.70304672  0.16073143  0.61461013
   0.20283428  0.66101648  0.61492650
   0.58576089  0.54483003  0.61474876
   0.36993922  0.12947142  0.54899971
   0.88245000  0.11835276  0.54646237
   0.38311544  0.61893404  0.54618821
   0.87074207  0.63050119  0.54910916
   0.37122549  0.25945198  0.56864488
   0.88330997  0.24611794  0.51803657
   0.38329944  0.74654714  0.51834354
   0.87151240  0.75934864  0.56945612
   0.42924224  0.08626374  0.64451366
   0.95522739  0.04671201  0.60347702
   0.45585158  0.54739961  0.60190543
   0.92424415  0.58075441  0.64414080
   0.23939499  0.12532373  0.56843471
   0.75276088  0.11392778  0.51979497
   0.25308691  0.61429165  0.52031548
   0.73920930  0.62528344  0.56856975
   0.45029796  0.41334932  0.61415164
   0.83697542  0.29673239  0.61212226
   0.33594288  0.79705280  0.61218882
   0.95046199  0.91349069  0.61508526
   0.50380519  0.48536130  0.23083457
   0.02075805  0.47996822  0.20757506
   0.52303071  0.98208324  0.20791036
   0.00410978  0.98614695  0.23073238
   0.13516805  0.99415063  0.52363670
   0.62293883  0.00831127  0.56829391
   0.12342707  0.50865079  0.56847455
   0.63534332  0.49395629  0.52363171
   0.50286977  0.13482739  0.53504482
   0.00278277  0.12690419  0.49539444
   0.50248591  0.62718618  0.49272932
   0.00170792  0.63458271  0.53173511
   0.12967762  0.12417648  0.50464009
   0.62238827  0.11883779  0.50707452
   0.12265382  0.61924783  0.50732798
   0.62832272  0.62362794  0.50621804
   0.12461512  0.25028620  0.53099980
   0.62945063  0.24935596  0.49301060
   0.12906821  0.74957603  0.49195083
   0.62342003  0.75025189  0.53043032
   0.04043070  0.08562077  0.32441625
   0.54611010  0.08547867  0.29262733
   0.04487885  0.58501332  0.29080271
   0.54126667  0.58563559  0.32412270
   0.11066849  0.19780801  0.40954556
   0.54746465  0.13822794  0.41235054
   0.05082306  0.63791564  0.41040430
   0.61287934  0.69808114  0.40895242
   0.98975549  0.37544384  0.56581957
   0.50277919  0.36392388  0.52420562
   0.00240487  0.86441490  0.52477353
   0.48893328  0.87533252  0.56789752
   0.03853577  0.46022312  0.33725906
   0.53884161  0.45878208  0.35363032
   0.03808940  0.95847979  0.35341024
   0.53601561  0.95865144  0.33778331
   0.12012549  0.37786042  0.55175825
   0.63039142  0.36396099  0.55114896
   0.12999228  0.86414313  0.55041807
   0.61766744  0.87589011  0.55158529
   0.07302468  0.43018205  0.45498649
   0.59886187  0.39515900  0.42918644
   0.09766324  0.89490033  0.42922870
   0.57106085  0.92903918  0.45543979
   0.28756586  0.08371977  0.35504762
   0.78687580  0.08637503  0.30967748
   0.28665112  0.58702185  0.30984983
   0.78799675  0.58375203  0.35568398
   0.19728722  0.47841846  0.22672154
   0.76040504  0.54882324  0.22707343
   0.25834507  0.04842394  0.22656475
   0.69663216  0.97734447  0.22680352
   0.16732734  0.31840413  0.64407536
   0.70390064  0.29162592  0.60503037
   0.20297278  0.79201375  0.60390801
   0.67439382  0.82613385  0.64418139
   0.37815416  0.00462849  0.53286394
   0.87367150  0.99770844  0.49550285
   0.37364848  0.49792696  0.49435621
   0.87836296  0.50370113  0.53509213
   0.41454940  0.21276418  0.35422945
   0.91400771  0.21612028  0.31313722
   0.41370314  0.71636789  0.31307209
   0.91404553  0.71350444  0.35426668
   0.24738221  0.75646897  0.71533900
   0.48848714  0.50948209  0.71442465
   0.75034621  0.25479633  0.71590910
   0.99153545  0.00232375  0.71597351
   0.06236025  0.31990942  0.20582151
   0.47964557  0.24145304  0.18918440
   0.97823259  0.74135553  0.18892942
   0.56263655  0.82004437  0.20617464
   0.26585761  0.18626890  0.19372392
   0.73330153  0.20018211  0.20688366
   0.23608122  0.69893814  0.20562217
   0.76815912  0.68650404  0.19420668
   0.47423722  0.43582365  0.21217732
   0.00802225  0.42954410  0.19579142
   0.50963054  0.93172485  0.19519799
   0.97471442  0.93667770  0.21192017
   0.28539728  0.03685766  0.19367771
   0.72915550  0.99513779  0.18812186
   0.22965897  0.49633816  0.18796446
   0.78665116  0.53614935  0.19425000
   0.21675010  0.71141692  0.74053789
   0.50516898  0.48362847  0.74384674
   0.71414755  0.21158675  0.74059299
   0.38612615  0.06805118  0.67340908
   0.63078719  0.79747011  0.67175118
   0.92835287  0.62022809  0.67285988
   0.19617519  0.36054024  0.67318913
   0.02116008  0.04860905  0.73990514
 
 position of ions in cartesian coordinates  (Angst):
   5.00437421  3.08573253  7.49559547
  15.61300262  2.96694705  6.97899239
   0.03084724 11.96918415  6.98487925
  10.18459370 12.07985799  7.50066064
  -0.02536303  5.98360934 11.28397041
  10.76347921  5.78549265 10.78738223
  -4.82546397 14.78590117 10.76018479
   5.15835652 14.98288607 11.28448287
   2.72889437  4.43128488  5.65259553
  12.96027339  4.51481930  6.20196363
  -2.58861699 13.50204579  6.16314876
   7.91533249 13.41588507  5.64553281
  -2.69400345  4.77071230  6.03391052
   7.48722399  4.43662431  6.04233638
  12.66913117 13.42765004  6.04267252
   2.49581549 13.75816295  6.03666571
   2.43801897  7.38805369  6.72748935
  12.97739928  7.69737943  6.70861984
  -2.60406055 16.68770637  6.66900292
   7.62212560 16.37136843  6.73475137
   2.46522867  7.34047115  9.77080736
  13.06106835  7.71675497  9.79783187
  -2.51789179 16.71280562  9.77159206
   7.65161317 16.33169714  9.78911074
   2.32638295  1.31600376 11.07197550
  12.98409176  1.78128676 11.06509558
  -2.59290253 10.77940914 11.06783113
   7.52011382 10.29938373 11.08079960
   5.16322350  6.29998470 11.07677178
  15.29853791  5.83722038 11.02296827
  -0.29044071 14.83427299 11.03137274
  10.34803614 15.29480160 11.10325244
   7.77296636  1.59527932 11.28017658
  18.51699482  1.30775650 10.73392206
   2.94452877 10.30887346 10.69958974
  12.95888458 10.57917664 11.27250981
   4.93662423  3.12952917 10.71683300
  15.85986132  2.81538487 10.07976636
   0.28513597 11.81692803 10.07978925
  10.12444388 12.12640899 10.72233025
   0.01741501  3.15208338  6.64464500
  10.22615417  2.89440892  6.70892780
  -5.33924743 11.88629513  6.66404069
   5.21537094 12.14633280  6.63581822
   5.20343274  8.93643768  6.22076280
  -5.03633098  8.90637908  5.67811521
   0.15155686 17.90796081  5.68048782
  10.38466187 17.92980496  6.21802543
   0.09960371  3.14670278  9.73598231
  10.28985000  2.87573371  9.76954000
  -5.28067424 11.86829876  9.74102036
   5.29289324 12.14336588  9.72213181
  -2.72604457  7.58055689  7.49807120
   7.84161639  7.43843743  7.07284252
  -7.74591688 16.42850967  7.07174309
   2.44475201 16.56422592  7.50529305
  -2.81322555  7.60872840 10.71894692
   8.09469983  7.27332528 10.17425311
  -7.49817202 16.27053044 10.17352231
   2.36205929 16.59214068 10.72890197
  -0.27052892  8.94620858  6.02121967
  10.26783286  9.26068379  6.05231952
   5.06105054  0.26560483  6.04238803
   4.90834584 17.92774344  6.02585075
  -2.66157425 13.50537277 12.68849460
   5.07516237  9.04799154 12.68252298
  12.94550149  4.50480344 12.69772213
  20.66453435  0.04671487 12.70100260
   2.61066474  6.04158781  5.84626871
  12.91724691  6.07948188  6.60996897
  -2.65700820 15.07302006  6.53600097
   7.79532469 15.02343502  5.85536408
  -1.36465110  3.84323718  6.14608983
   8.93806105  3.71473339  6.16556672
  -6.64886750 12.70215684  6.16696465
   3.81349983 12.81599758  6.16541785
  -1.33541973  8.32827836  7.07865470
   8.98212384  8.33430873  6.36595247
  -6.60317828 17.32415526  6.37030477
   3.82638783 17.32937650  7.08049225
  -2.62622061  5.99691769  7.11708449
   7.66730590  6.03341819  6.28316497
  -7.91023324 15.02426294  6.27938148
   2.56591978 14.98285915  7.12030122
   1.20002089  8.27575314  6.17319180
  11.62658331  8.36608452  6.09661964
  -3.96438773 17.35562793  6.08051865
   6.37013320 17.24155525  6.18698898
   1.26414750  3.73955810  5.80319512
  11.55680549  3.81291424  6.61663375
  -4.01461956 12.80748596  6.50830520
   6.43748046 12.73857603  5.75872958
  -2.83088285  5.38669828  4.52006978
   6.88110659  4.16961427  4.54756311
  12.05742035 13.15820465  4.55093355
   2.37073990 14.35863004  4.51677911
   3.74879970  3.77991255  6.74349108
  14.18252835  3.75003981  6.97833948
  -1.40191026 12.75533726  7.01752353
   8.91448078 12.74550261  6.74521895
   3.26986967  4.23127810  4.13480282
  13.18113820  4.46042654  4.58557871
  -2.27037789 13.42535732  4.56389673
   8.48226146 13.22025746  4.13808386
   3.90888628  6.65227936 10.09800472
  14.37131182  6.79052473 10.08147149
  -1.20810537 15.78652213 10.07717186
   9.08420105 15.63484060 10.13756834
   2.10577550  6.94941392  8.25007320
  13.10533606  8.15962997  8.25160724
  -2.46565848 17.12635119  8.21796553
   7.30277900 15.94728847  8.26286231
   1.24596177  6.84012570 10.71618881
  11.71882368  6.84589453 10.03534550
  -3.86857659 15.85228581 10.01839446
   6.42297352 15.82637089 10.71394165
   3.80342858  8.25993174  6.69971791
  14.26929054  8.24217897  5.91583417
  -1.32476910 17.25428667  5.86706438
   8.98460598 17.24743743  6.68499108
   4.76259496  3.23893083  9.09800044
  16.11372362  2.64353602  8.48820999
   0.54166322 11.64010033  8.49116016
   9.93811266 12.24010201  9.10454510
   1.29976935  0.84409500 12.28178862
  12.93146559  2.89077019 12.29220269
  -2.65145615 11.88844490 12.29853006
   6.50737904  9.79882036 12.29497524
   6.33828333  2.32855585 10.97999411
  17.09725260  2.12858577 10.92924748
   1.52948620 11.13158815 10.92376416
  11.53611367 11.33962443 10.98218323
   5.01531677  4.66626869 11.37289752
  15.78843671  4.42645475 10.36073140
   0.20821125 13.42672191 10.36687079
  10.21419806 13.65695822 11.38912234
   8.01850843  1.55146159 12.89027323
  19.35254582  0.84012000 12.06954034
   3.78281871  9.84503461 12.03810863
  13.16376838 10.44492373 12.88281603
   3.67028746  2.25395923 11.36869417
  14.44989445  2.04900212 10.39589940
  -1.12266321 11.04809435 10.40630965
   8.85869966 11.24578269 11.37139508
   5.05942241  7.43412725 12.28303275
  14.30062333  5.33676044 12.24244526
  -1.29969692 14.33507106 12.24377637
  10.25321101 16.42921777 12.30170518
   5.42287784  8.72926956  4.61669139
  -4.55275539  8.63227454  4.15150119
   0.66433011 17.66286139  4.15820724
 -10.15450461 17.73594749  4.61464753
  -7.51587289 17.87989445 10.47273407
  12.85051804  0.14947908 11.36587825
  -2.71841783  9.14813330 11.36949101
   8.06533497  8.88385132 10.47263419
   9.04329056  2.42488348 10.70089647
  -1.25994400  2.28238396  9.90788881
   3.92281267 11.28000368  9.85458635
  -6.55384742 11.41303090 10.63470224
   1.40365558  2.23332594 10.09280175
  11.69141014  2.13730914 10.14149038
  -3.88288283 11.13723173 10.14655954
   6.57306384 11.21600834 10.12436077
  -0.01096480  4.50142132 10.61999599
  10.48281555  4.48469084  9.86021196
  -5.10296136 13.48119678  9.83901658
   5.15642265 13.49335225 10.60860638
  -0.04941992  1.53989784  6.48832504
  10.45370202  1.53734211  5.85254668
  -5.14258573 10.52152072  5.81605411
   5.15963719 10.53271225  6.48245400
   0.24431770  3.55759608  8.19091118
   9.93409992  2.48604271  8.24701087
  -5.56846173 11.47297398  8.20808597
   5.47924529 12.55505629  8.17904834
  16.65615195  6.75239351 11.31639149
   6.66254011  6.54520596 10.48411249
  -8.92588209 15.54658504 10.49547066
   1.06468276 15.74293940 11.35795035
  -3.97853095  8.27715692  6.74518116
   6.42648370  8.25123981  7.07260637
  -9.16154881 17.23835095  7.06820490
   1.17730157 17.24143825  6.75566616
  -1.42889508  6.79585598 11.03516492
   9.31232910  6.54587339 11.02297915
  -6.27340145 15.54169721 11.00836137
   3.73236662 15.75296777 11.03170577
  -2.95034866  7.73686552  9.09972979
   8.33359156  7.10697260  8.58372877
  -7.26416501 16.09486840  8.58457398
   2.21258494 16.70885885  9.10879582
   5.10267428  1.50570802  7.10095232
  15.44447212  1.55346313  6.19354960
  -0.14246028 10.55764434  6.19699664
  10.30313780 10.49883622  7.11367962
  -0.87061103  8.60440189  4.53443077
  10.09281975  9.87063858  4.54146854
   4.86233583  0.87090920  4.53129502
   4.31878699 17.57763406  4.53607038
   0.16874071  5.72652893 12.88150724
  11.59003018  5.24492017 12.10060745
  -4.00881615 14.24444325 12.07816017
   5.42708012 14.85809663 12.88362789
   7.80521797  0.08324378 10.65727873
   7.78398046 17.94388199  9.91005702
   2.58938325  8.95526424  9.88712425
  13.01103345  9.05911317 10.70184264
   6.39983377  3.82658422  7.08458900
  16.73743560  3.88694394  6.26274430
   1.15298920 12.88394533  6.26144181
  11.57353320 12.83244581  7.08533354
  -2.71746153 13.60516706 14.30678009
   4.85429859  9.16308429 14.28849307
  12.93701127  4.58253654 14.31818202
  20.56748408  0.04179289 14.31947027
  -2.02678314  5.75360161  4.11643017
   7.45381556  4.34255603  3.78368790
  12.61733400 13.33335036  3.77858848
   3.16940366 14.74857672  4.12349282
   3.58701093  3.35006403  3.87447839
  13.15013531  3.60029449  4.13767327
  -2.35477094 12.57046963  4.11244333
   8.82421577 12.34684101  3.88413362
   5.32321211  7.83833010  4.24354645
  -4.29365594  7.72539196  3.91582840
   0.90894999 16.75716087  3.90395977
  10.51610396 16.84623839  4.23840341
   5.54424054  0.66288860  3.87355427
   4.80945158 17.89764867  3.76243715
  -0.38440678  8.92668942  3.75928921
  10.76948518  9.64269755  3.88500010
  -2.88580386 12.79490152 14.81075776
   5.46919332  8.69810455 14.87693475
  12.63393447  3.80540806 14.81185973
   7.31221328  1.22390694 13.46818160
   4.81911947 14.34257643 13.43502359
  12.83921294 11.15486165 13.45719768
   0.33030692  6.48435091 13.46378251
  -0.06530204  0.87423852 14.79810282
 


--------------------------------------------------------------------------------------------------------


 k-point   1 :   0.0000 0.0000 0.0000  plane waves:  135623

 maximum and minimum number of plane-waves per node :    135623   135623

 maximum number of plane-waves:    135623
 maximum index in each direction: 
   IXMAX=   33   IYMAX=   33   IZMAX=   32
   IXMIN=  -33   IYMIN=  -33   IZMIN=  -32


 serial   3D FFT for wavefunctions
 parallel 3D FFT for charge:
    minimum data exchange during FFTs selected (reduces bandwidth)


 total amount of memory used by VASP MPI-rank0   678564. kBytes
=======================================================================

   base      :      30000. kBytes
   nonlr-proj:      58778. kBytes
   fftplans  :      55331. kBytes
   grid      :     139999. kBytes
   one-center:        737. kBytes
   wavefun   :     393719. kBytes
 
     INWAV:  cpu time      0.0019: real time      0.0003
 Broyden mixing: mesh for mixing (old mesh)
   NGX = 67   NGY = 67   NGZ = 65
  (NGX  =180   NGY  =180   NGZ  =180)
  gives a total of 291785 points

 initial charge density was supplied:
 charge density of overlapping atoms calculated
 number of electron    1184.0000000 magnetization 
 keeping initial charge density in first step


--------------------------------------------------------------------------------------------------------


 Maximum index for non-local projection operator         4927
 Maximum index for augmentation-charges         1934 (set IRDMAX)


--------------------------------------------------------------------------------------------------------


 First call to EWALD:  gamma=   0.091
 Maximum number of real-space cells 3x 3x 3
 Maximum number of reciprocal cells 3x 3x 3

    FEWALD:  cpu time      0.1050: real time      0.0146


--------------------------------------- Ionic step        1  -------------------------------------------




--------------------------------------- Iteration      1(   1)  ---------------------------------------


    POTLOK:  cpu time      2.0773: real time      0.2609
    SETDIJ:  cpu time      0.1175: real time      0.0147
    EDDIAG:  cpu time      3.4736: real time      0.4353
  RMM-DIIS:  cpu time      1.4337: real time      0.2395
    ORTHCH:  cpu time      0.0213: real time      0.0549
       DOS:  cpu time      0.0016: real time      0.0011
    --------------------------------------------
      LOOP:  cpu time      7.1250: real time      1.0064

 eigenvalue-minimisations  :   716
 total energy-change (2. order) : 0.2002697E+05  (-0.3351336E+05)
 number of electron    1184.0000000 magnetization 
 augmentation part     1184.0000000 magnetization 

 Free energy of the ion-electron system (eV)
  ---------------------------------------------------
  alpha Z        PSCENC =       848.41779621
  Ewald energy   TEWEN  =    131476.93035703
  -Hartree energ DENC   =   -192090.82399193
  -exchange      EXHF   =         0.00000000
  -V(xc)+E(xc)   XCENC  =      3901.84636566
  PAW double counting   =         0.00000000        0.00000000
  entropy T*S    EENTRO =        -0.02146930
  eigenvalues    EBANDS =      4210.84796911
  atomic energy  EATOM  =     71679.77674012
  Solvation  Ediel_sol  =         0.00000000
  ---------------------------------------------------
  free energy    TOTEN  =     20026.97376690 eV

  energy without entropy =    20026.99523621  energy(sigma->0) =    20026.98092334


--------------------------------------------------------------------------------------------------------




--------------------------------------- Iteration      1(   2)  ---------------------------------------


    EDDIAG:  cpu time      1.1074: real time      0.2317
  RMM-DIIS:  cpu time      1.4427: real time      0.2258
    ORTHCH:  cpu time      0.0233: real time      0.0548
       DOS:  cpu time      0.0017: real time      0.0009
    --------------------------------------------
      LOOP:  cpu time      2.5752: real time      0.5132

 eigenvalue-minimisations  :   716
 total energy-change (2. order) :-0.1152869E+05  (-0.1295498E+05)
 number of electron    1184.0000000 magnetization 
 augmentation part     1184.0000000 magnetization 

 Free energy of the ion-electron system (eV)
  ---------------------------------------------------
  alpha Z        PSCENC =       848.41779621
  Ewald energy   TEWEN  =    131476.93035703
  -Hartree energ DENC   =   -192090.82399193
  -exchange      EXHF   =         0.00000000
  -V(xc)+E(xc)   XCENC  =      3901.84636566
  PAW double counting   =         0.00000000        0.00000000
  entropy T*S    EENTRO =        -0.02001997
  eigenvalues    EBANDS =     -7317.84044554
  atomic energy  EATOM  =     71679.77674012
  Solvation  Ediel_sol  =         0.00000000
  ---------------------------------------------------
  free energy    TOTEN  =      8498.28680159 eV

  energy without entropy =     8498.30682156  energy(sigma->0) =     8498.29347491


--------------------------------------------------------------------------------------------------------




--------------------------------------- Iteration      1(   3)  ---------------------------------------


    EDDIAG:  cpu time      1.1042: real time      0.2295
  RMM-DIIS:  cpu time      1.4356: real time      0.2254
    ORTHCH:  cpu time      0.0231: real time      0.0554
       DOS:  cpu time      0.0019: real time      0.0010
    --------------------------------------------
      LOOP:  cpu time      2.5645: real time      0.5113

 eigenvalue-minimisations  :   716
 total energy-change (2. order) :-0.4943087E+04  (-0.6525096E+04)
 number of electron    1184.0000000 magnetization 
 augmentation part     1184.0000000 magnetization 

 Free energy of the ion-electron system (eV)
  ---------------------------------------------------
  alpha Z        PSCENC =       848.41779621
  Ewald energy   TEWEN  =    131476.93035703
  -Hartree energ DENC   =   -192090.82399193
  -exchange      EXHF   =         0.00000000
  -V(xc)+E(xc)   XCENC  =      3901.84636566
  PAW double counting   =         0.00000000        0.00000000
  entropy T*S    EENTRO =        -0.02158467
  eigenvalues    EBANDS =    -12260.92628309
  atomic energy  EATOM  =     71679.77674012
  Solvation  Ediel_sol  =         0.00000000
  ---------------------------------------------------
  free energy    TOTEN  =      3555.19939934 eV

  energy without entropy =     3555.22098401  energy(sigma->0) =     3555.20659423


--------------------------------------------------------------------------------------------------------




--------------------------------------- Iteration      1(   4)  ---------------------------------------


    EDDIAG:  cpu time      1.1062: real time      0.2298
  RMM-DIIS:  cpu time      1.4409: real time      0.2255
    ORTHCH:  cpu time      0.0211: real time      0.0548
       DOS:  cpu time      0.0014: real time      0.0009
    --------------------------------------------
      LOOP:  cpu time      2.5696: real time      0.5110

 eigenvalue-minimisations  :   716
 total energy-change (2. order) :-0.3388167E+04  (-0.3380505E+04)
 number of electron    1184.0000000 magnetization 
 augmentation part     1184.0000000 magnetization 

 Free energy of the ion-electron system (eV)
  ---------------------------------------------------
  alpha Z        PSCENC =       848.41779621
  Ewald energy   TEWEN  =    131476.93035703
  -Hartree energ DENC   =   -192090.82399193
  -exchange      EXHF   =         0.00000000
  -V(xc)+E(xc)   XCENC  =      3901.84636566
  PAW double counting   =         0.00000000        0.00000000
  entropy T*S    EENTRO =         0.01253957
  eigenvalues    EBANDS =    -15649.12722201
  atomic energy  EATOM  =     71679.77674012
  Solvation  Ediel_sol  =         0.00000000
  ---------------------------------------------------
  free energy    TOTEN  =       167.03258465 eV

  energy without entropy =      167.02004509  energy(sigma->0) =      167.02840480


--------------------------------------------------------------------------------------------------------




--------------------------------------- Iteration      1(   5)  ---------------------------------------


    EDDIAG:  cpu time      1.1018: real time      0.2294
[...]
  244            rpromu_acc                            0.371818                      207   5
  245          m_sumb_d                              0.008409                          1   4
  246        fft3d_mpi                             0.110003                           11   3
  247          fftbrc_mpi                            0.097422                         11   4
  248            fftbas_plan_mpi                       0.097408                       11   5
  249              dfftw_execute                         0.025284                     33   6
  250              map_forward                           0.018891                     10   6
  251                map_gather                            0.003441                    5   7
  252                m_alltoallv_z                         0.012118                    5   7
  253                map_scatter                           0.003295                    5   7
  254              map_backward                          0.052296                     12   6
  255                map_gather                            0.002853                    6   7
  256                m_alltoallv_z                         0.014631                    6   7
  257                map_scatter                           0.034775                    6   7
  258        ggaall_grid                           0.069480                            1   3
  259        m_sumb_d                              0.001133                            5   3
  260        forhar                                0.051997                            2   3
  261          m_sumb_d                              0.000116                          2   4
  262        strehar                               0.006853                            1   3
  263          m_sumb_d                              0.000120                          1   4
  264        chggra                                0.067628                            1   3
  265          fft3d_mpi                             0.063484                          3   4
  266            fftbrc_mpi                            0.060530                        3   5
  267              fftbas_plan_mpi                       0.060527                      3   6
  268                map_forward                           0.058810                    4   7
  269                  map_gather                            0.000013                  2   8
  270                  m_alltoallv_z                         0.058772                  2   8
  271                  map_scatter                           0.000011                  2   8
  272                map_backward                          0.000035                    2   7
  273                  map_gather                            0.000003                  1   8
  274                  m_alltoallv_z                         0.000019                  1   8
  275                  map_scatter                           0.000004                  1   8
  276          m_sumb_d                              0.000009                          2   4
  277          pothar                                0.000323                          1   4
  278            m_sumb_d                              0.000010                        1   5
  279        brmix                                 0.035289                            1   3
  280          m_sumb_d                              0.000155                          6   4
  281          brpre                                 0.000547                          1   4
  282          setg0                                 0.005362                          1   4
  283          broyd                                 0.027930                          1   4
  284            m_sumb_d                              0.000547                       30   5
  285            brget                                 0.005360                      124   5
  286            brsav                                 0.001742                       28   5
  287        m_bcast_d                             0.000140                            2   3
  288      potlok                                0.223340                              1   2
  289        fft3d_mpi                             0.121092                           13   3
  290          fftbrc_mpi                            0.102823                         13   4
  291            fftbas_plan_mpi                       0.102803                       13   5
  292              dfftw_execute                         0.028588                     39   6
  293              map_forward                           0.023650                     14   6
  294                map_gather                            0.004693                    8   7
  295                m_alltoallv_z                         0.014353                    8   7
  296                map_scatter                           0.004553                    8   7
  297              map_backward                          0.049452                     12   6
  298                map_gather                            0.002859                    6   7
  299                m_alltoallv_z                         0.014606                    6   7
  300                map_scatter                           0.031954                    6   7
  301        ggaall_grid                           0.066904                            1   3
  302        m_sumb_d                              0.000886                            5   3
  303        pothar                                0.004817                            1   3
  304          m_sumb_d                              0.002092                          1   4
  305        m_bcast_d                             0.002044                            1   3
  306      potlok_metagga                        0.000000                              1   2
  307      set_dd_magatom                        0.000005                              1   2
  308      set_dd_paw                            0.000012                              1   2
  309      densta                                0.000850                              1   2
  310        m_sumb_d                              0.000166                           38   3
 
 Flat profile
 ============
 
             routine name                   CPU           calls
 ---------------------------------------------------------------
 eddiag                                  7.074138          35
 wfinit                                  4.951200           1
 hip_hipfft_makeplan                     3.990500           6
 i2                                      2.492865        1502
 total_time                              1.952720           1
 ggaall_grid                             1.818716          26
 i3                                      1.799717        1502
 m_sumb_d                                1.674224        2522
 hamiltmu                                1.554544        1502
 rpromu_acc                              1.511577        1801
 raccmu_                                 1.411833        1502
 map_scatter                             1.241145         437
 init_hip                                1.240872           1
 w1_gemv                                 1.189958       49240
 newband                                 1.028947        1537
 phaser                                  0.986311          48
 m_alltoallv_z                           0.976575         437
 m_bcast_z                               0.877677         716
 m_alltoall_d                            0.828309       69810
 dfftw_execute                           0.815673        1155
 rspher_all                              0.812157          14
 setdij_                                 0.732001          52
 potlok                                  0.711026          25
 fft3d_mpi                               0.613332       18418
 orthch                                  0.592614          36
 fft3d                                   0.443245       48176
 augmentation_charge                     0.412048          24
 choleski                                0.377700          36
 lincom                                  0.353760          71
 eddrmm                                  0.352707          35
 eccp                                    0.346857       24239
 w1_copy                                 0.344126       35295
 w1_dscal                                0.286582       28237
 map_gather                              0.221720         437
 fftwav                                  0.219290       30146
 broyd                                   0.207091          24
 w1_daxpy                                0.190483       23474
 redis_proj                              0.158520         213
 elmin                                   0.150992           1
 redis_pw                                0.142194         317
 setg0                                   0.129349          25
 stufak                                  0.113222           1
 w1_gaxpy                                0.100672       14650
 overl_mu                                0.093295        1502
 overl1                                  0.090814       12310
 orth1                                   0.080131         141
 soft_charge                             0.077204          24
 apply_precond                           0.076920       20887
 pothar                                  0.068602          26
 brget                                   0.065618        1590
 brmix                                   0.065128          24
 eccp_nl                                 0.064840       35948
 m_bcast_d                               0.063198          27
 cnorma                                  0.062793       53922
 fftext_mpi                              0.062066       18030
 vhamil                                  0.061975       18030
 kinhamil                                0.059935       18030
 force_and_stress                        0.054315           1
 forhar                                  0.051881           2
 hip_init_hipblas                        0.051226           1
 forloc                                  0.040944           1
 fftwav_mpi                              0.039495       30146
 inisym                                  0.037441           1
 setup_precond                           0.036581        6265
 fftbas_plan_mpi                         0.036575         388
 zhegv                                   0.032510        5500
 set_charge                              0.029412          24
 racc0mu_acc                             0.028306        1502
 depsum                                  0.027411          24
 proall                                  0.026665           1
 densta                                  0.024871          36
 brsav                                   0.023293         400
 rpro_isp                                0.016571          13
 pw_charge                               0.015027        3552
 brpre                                   0.012967          24
 strnlr                                  0.012165           1
 rsp                                     0.009895           1
 truncate_high_frequency_w1              0.009605       18030
 strehar                                 0.006733           1
 i1                                      0.005811        1502
 hamilt_local                            0.005350        6265
 fft_gq                                  0.004924          24
 strelo                                  0.004506           1
 fornlr                                  0.003871           1
 chggra                                  0.003812           1
 overl                                   0.003563          71
 rcp                                     0.001965           1
 fewald                                  0.001904           1
 w1_projall                              0.001723        1502
 brgrid                                  0.001626           1
 map_forward                             0.001270         366
 map_backward                            0.001190         410
 strkin                                  0.000861           1
 hip_init_rocsolver                      0.000594           1
 fftbrc_mpi                              0.000535         388
 vectorpot                               0.000381          25
 set_dd_paw                              0.000345          26
 set_dd_magatom                          0.000156          26
 fordep                                  0.000053           1
 crpa_reader                             0.000040           1
 posmap                                  0.000035           2
 hip_hipfft_makeplans                    0.000018           3
 shift_bands_between_low_high            0.000017          35
 potlok_metagga                          0.000017          25
 rotate_active_occupied_orbital          0.000001           1
 redis_pw_over_bands                     0.000000           1
 ---------------------------------------------------------------
  summed up times    49.0901629924774     
 
 Accumulative profile
 ====================
 
             routine name                   CPU           calls
 ---------------------------------------------------------------
 total_time                             49.090163           1
 elmin                                  32.570178           1
 eddrmm                                 14.096857          35
 eddiag                                  8.186328          35
 potlok                                  5.847190          25
 wfinit                                  5.830123           1
 i2                                      4.517323        1502
 fft3d_mpi                               4.066117       18418
 hip_hipfft_makeplans                    3.990518           3
 hip_hipfft_makeplan                     3.990500           6
 hamiltmu                                3.312286        1502
 fftbrc_mpi                              3.294682         388
 fftbas_plan_mpi                         3.294147         388
 i3                                      2.499451        1502
 force_and_stress                        2.443114           1
 orthch                                  2.279927          36
 ggaall_grid                             1.818716          26
 set_charge                              1.817724          24
 map_backward                            1.713509         410
 m_sumb_d                                1.674224        2522
 raccmu_                                 1.533434        1502
 rpromu_acc                              1.511577        1801
 newband                                 1.325258        1537
 w1_gemv                                 1.280772       49240
 map_scatter                             1.241145         437
 init_hip                                1.240872           1
 strnlr                                  1.164864           1
 soft_charge                             1.066747          24
 phaser                                  0.986311          48
 m_alltoallv_z                           0.976575         437
 w1_projall                              0.973690        1502
 m_bcast_z                               0.877677         716
 m_alltoall_d                            0.828309       69810
 dfftw_execute                           0.815673        1155
 rspher_all                              0.812157          14
 setdij_                                 0.739841          52
 map_forward                             0.728390         366
 augmentation_charge                     0.691273          24
 rpro_isp                                0.625715          13
 redis_proj                              0.621274         213
 fftwav_mpi                              0.543927       30146
 brmix                                   0.507884          24
 redis_pw                                0.507748         317
 fftwav                                  0.504432       30146
 fft3d                                   0.443245       48176
 fornlr                                  0.389718           1
 choleski                                0.377700          36
 lincom                                  0.353760          71
 eccp                                    0.346857       24239
 w1_copy                                 0.344126       35295
 broyd                                   0.298645          24
 kinhamil                                0.288537       18030
 w1_dscal                                0.286582       28237
 fft_gq                                  0.237902          24
 fftext_mpi                              0.228602       18030
 map_gather                              0.221720         437
 w1_daxpy                                0.190483       23474
 proall                                  0.150361           1
 hamilt_local                            0.131554        6265
 setg0                                   0.129349          25
 cnorma                                  0.127633       53922
 pothar                                  0.115701          26
 i1                                      0.113965        1502
 stufak                                  0.113222           1
 w1_gaxpy                                0.100672       14650
 overl_mu                                0.093295        1502
 overl1                                  0.090814       12310
 fordep                                  0.084578           1
 orth1                                   0.080131         141
 apply_precond                           0.076920       20887
 chggra                                  0.067628           1
 brget                                   0.065618        1590
 eccp_nl                                 0.064840       35948
 m_bcast_d                               0.063198          27
 vhamil                                  0.061975       18030
 forhar                                  0.051997           2
 hip_init_hipblas                        0.051226           1
 forloc                                  0.043016           1
 inisym                                  0.037476           1
 setup_precond                           0.036581        6265
 zhegv                                   0.032510        5500
 depsum                                  0.030292          24
 densta                                  0.030022          36
 racc0mu_acc                             0.028306        1502
 brsav                                   0.023293         400
 pw_charge                               0.015027        3552
 fewald                                  0.014627           1
 brpre                                   0.012967          24
 rsp                                     0.009895           1
 truncate_high_frequency_w1              0.009605       18030
 strelo                                  0.008016           1
 strehar                                 0.006853           1
 overl                                   0.003563          71
 rcp                                     0.001965           1
 brgrid                                  0.001626           1
 strkin                                  0.000908           1
 hip_init_rocsolver                      0.000594           1
 vectorpot                               0.000381          25
 set_dd_paw                              0.000345          26
 set_dd_magatom                          0.000156          26
 crpa_reader                             0.000040           1
 posmap                                  0.000035           2
 shift_bands_between_low_high            0.000017          35
 potlok_metagga                          0.000017          25
 rotate_active_occupied_orbital          0.000001           1
 redis_pw_over_bands                     0.000000           1
 ---------------------------------------------------------------
 
Profiling took   0.092564  0.066616  0.002772  0.002728 seconds
Profiling took   0.088123 seconds
