LAMMPS data file generated for Cu (atom_style full)

1008 atoms
1 atom types

0.0 21.690000 xlo xhi
0.0 21.690000 ylo yhi
0.0 25.305000 zlo zhi

Masses

1 63.546

Atoms # full

1 1 1 0.0 0.000000 0.000000 0.000000
2 1 1 0.0 1.807500 1.807500 0.000000
3 1 1 0.0 1.807500 0.000000 1.807500
4 1 1 0.0 0.000000 1.807500 1.807500
5 1 1 0.0 3.615000 0.000000 0.000000
6 1 1 0.0 5.422500 1.807500 0.000000
7 1 1 0.0 5.422500 0.000000 1.807500
8 1 1 0.0 3.615000 1.807500 1.807500
9 1 1 0.0 7.230000 0.000000 0.000000
10 1 1 0.0 9.037500 1.807500 0.000000
11 1 1 0.0 9.037500 0.000000 1.807500
12 1 1 0.0 7.230000 1.807500 1.807500
13 1 1 0.0 10.845000 0.000000 0.000000
14 1 1 0.0 12.652500 1.807500 0.000000
15 1 1 0.0 12.652500 0.000000 1.807500
16 1 1 0.0 10.845000 1.807500 1.807500
17 1 1 0.0 14.460000 0.000000 0.000000
18 1 1 0.0 16.267500 1.807500 0.000000
19 1 1 0.0 16.267500 0.000000 1.807500
20 1 1 0.0 14.460000 1.807500 1.807500
21 1 1 0.0 18.075000 0.000000 0.000000
22 1 1 0.0 19.882500 1.807500 0.000000
23 1 1 0.0 19.882500 0.000000 1.807500
24 1 1 0.0 18.075000 1.807500 1.807500
25 1 1 0.0 0.000000 3.615000 0.000000
26 1 1 0.0 1.807500 5.422500 0.000000
27 1 1 0.0 1.807500 3.615000 1.807500
28 1 1 0.0 0.000000 5.422500 1.807500
29 1 1 0.0 3.615000 3.615000 0.000000
30 1 1 0.0 5.422500 5.422500 0.000000
31 1 1 0.0 5.422500 3.615000 1.807500
32 1 1 0.0 3.615000 5.422500 1.807500
33 1 1 0.0 7.230000 3.615000 0.000000
34 1 1 0.0 9.037500 5.422500 0.000000
35 1 1 0.0 9.037500 3.615000 1.807500
36 1 1 0.0 7.230000 5.422500 1.807500
37 1 1 0.0 10.845000 3.615000 0.000000
38 1 1 0.0 12.652500 5.422500 0.000000
39 1 1 0.0 12.652500 3.615000 1.807500
40 1 1 0.0 10.845000 5.422500 1.807500
41 1 1 0.0 14.460000 3.615000 0.000000
42 1 1 0.0 16.267500 5.422500 0.000000
43 1 1 0.0 16.267500 3.615000 1.807500
44 1 1 0.0 14.460000 5.422500 1.807500
45 1 1 0.0 18.075000 3.615000 0.000000
46 1 1 0.0 19.882500 5.422500 0.000000
47 1 1 0.0 19.882500 3.615000 1.807500
48 1 1 0.0 18.075000 5.422500 1.807500
49 1 1 0.0 0.000000 7.230000 0.000000
50 1 1 0.0 1.807500 9.037500 0.000000
51 1 1 0.0 1.807500 7.230000 1.807500
52 1 1 0.0 0.000000 9.037500 1.807500
53 1 1 0.0 3.615000 7.230000 0.000000
54 1 1 0.0 5.422500 9.037500 0.000000
55 1 1 0.0 5.422500 7.230000 1.807500
56 1 1 0.0 3.615000 9.037500 1.807500
57 1 1 0.0 7.230000 7.230000 0.000000
58 1 1 0.0 9.037500 9.037500 0.000000
59 1 1 0.0 9.037500 7.230000 1.807500
60 1 1 0.0 7.230000 9.037500 1.807500
61 1 1 0.0 10.845000 7.230000 0.000000
62 1 1 0.0 12.652500 9.037500 0.000000
63 1 1 0.0 12.652500 7.230000 1.807500
64 1 1 0.0 10.845000 9.037500 1.807500
65 1 1 0.0 14.460000 7.230000 0.000000
66 1 1 0.0 16.267500 9.037500 0.000000
67 1 1 0.0 16.267500 7.230000 1.807500
68 1 1 0.0 14.460000 9.037500 1.807500
69 1 1 0.0 18.075000 7.230000 0.000000
70 1 1 0.0 19.882500 9.037500 0.000000
71 1 1 0.0 19.882500 7.230000 1.807500
72 1 1 0.0 18.075000 9.037500 1.807500
73 1 1 0.0 0.000000 10.845000 0.000000
74 1 1 0.0 1.807500 12.652500 0.000000
75 1 1 0.0 1.807500 10.845000 1.807500
76 1 1 0.0 0.000000 12.652500 1.807500
77 1 1 0.0 3.615000 10.845000 0.000000
78 1 1 0.0 5.422500 12.652500 0.000000
79 1 1 0.0 5.422500 10.845000 1.807500
80 1 1 0.0 3.615000 12.652500 1.807500
81 1 1 0.0 7.230000 10.845000 0.000000
82 1 1 0.0 9.037500 12.652500 0.000000
83 1 1 0.0 9.037500 10.845000 1.807500
84 1 1 0.0 7.230000 12.652500 1.807500
85 1 1 0.0 10.845000 10.845000 0.000000
86 1 1 0.0 12.652500 12.652500 0.000000
87 1 1 0.0 12.652500 10.845000 1.807500
88 1 1 0.0 10.845000 12.652500 1.807500
89 1 1 0.0 14.460000 10.845000 0.000000
90 1 1 0.0 16.267500 12.652500 0.000000
91 1 1 0.0 16.267500 10.845000 1.807500
92 1 1 0.0 14.460000 12.652500 1.807500
93 1 1 0.0 18.075000 10.845000 0.000000
94 1 1 0.0 19.882500 12.652500 0.000000
95 1 1 0.0 19.882500 10.845000 1.807500
96 1 1 0.0 18.075000 12.652500 1.807500
97 1 1 0.0 0.000000 14.460000 0.000000
98 1 1 0.0 1.807500 16.267500 0.000000
99 1 1 0.0 1.807500 14.460000 1.807500
100 1 1 0.0 0.000000 16.267500 1.807500
101 1 1 0.0 3.615000 14.460000 0.000000
102 1 1 0.0 5.422500 16.267500 0.000000
103 1 1 0.0 5.422500 14.460000 1.807500
104 1 1 0.0 3.615000 16.267500 1.807500
105 1 1 0.0 7.230000 14.460000 0.000000
106 1 1 0.0 9.037500 16.267500 0.000000
107 1 1 0.0 9.037500 14.460000 1.807500
108 1 1 0.0 7.230000 16.267500 1.807500
109 1 1 0.0 10.845000 14.460000 0.000000
110 1 1 0.0 12.652500 16.267500 0.000000
111 1 1 0.0 12.652500 14.460000 1.807500
112 1 1 0.0 10.845000 16.267500 1.807500
113 1 1 0.0 14.460000 14.460000 0.000000
114 1 1 0.0 16.267500 16.267500 0.000000
115 1 1 0.0 16.267500 14.460000 1.807500
116 1 1 0.0 14.460000 16.267500 1.807500
117 1 1 0.0 18.075000 14.460000 0.000000
118 1 1 0.0 19.882500 16.267500 0.000000
119 1 1 0.0 19.882500 14.460000 1.807500
120 1 1 0.0 18.075000 16.267500 1.807500
121 1 1 0.0 0.000000 18.075000 0.000000
122 1 1 0.0 1.807500 19.882500 0.000000
123 1 1 0.0 1.807500 18.075000 1.807500
124 1 1 0.0 0.000000 19.882500 1.807500
125 1 1 0.0 3.615000 18.075000 0.000000
126 1 1 0.0 5.422500 19.882500 0.000000
127 1 1 0.0 5.422500 18.075000 1.807500
128 1 1 0.0 3.615000 19.882500 1.807500
129 1 1 0.0 7.230000 18.075000 0.000000
130 1 1 0.0 9.037500 19.882500 0.000000
131 1 1 0.0 9.037500 18.075000 1.807500
132 1 1 0.0 7.230000 19.882500 1.807500
133 1 1 0.0 10.845000 18.075000 0.000000
134 1 1 0.0 12.652500 19.882500 0.000000
135 1 1 0.0 12.652500 18.075000 1.807500
136 1 1 0.0 10.845000 19.882500 1.807500
137 1 1 0.0 14.460000 18.075000 0.000000
138 1 1 0.0 16.267500 19.882500 0.000000
139 1 1 0.0 16.267500 18.075000 1.807500
140 1 1 0.0 14.460000 19.882500 1.807500
141 1 1 0.0 18.075000 18.075000 0.000000
142 1 1 0.0 19.882500 19.882500 0.000000
143 1 1 0.0 19.882500 18.075000 1.807500
144 1 1 0.0 18.075000 19.882500 1.807500
145 1 1 0.0 0.000000 0.000000 3.615000
146 1 1 0.0 1.807500 1.807500 3.615000
147 1 1 0.0 1.807500 0.000000 5.422500
148 1 1 0.0 0.000000 1.807500 5.422500
149 1 1 0.0 3.615000 0.000000 3.615000
150 1 1 0.0 5.422500 1.807500 3.615000
151 1 1 0.0 5.422500 0.000000 5.422500
152 1 1 0.0 3.615000 1.807500 5.422500
153 1 1 0.0 7.230000 0.000000 3.615000
154 1 1 0.0 9.037500 1.807500 3.615000
155 1 1 0.0 9.037500 0.000000 5.422500
156 1 1 0.0 7.230000 1.807500 5.422500
157 1 1 0.0 10.845000 0.000000 3.615000
158 1 1 0.0 12.652500 1.807500 3.615000
159 1 1 0.0 12.652500 0.000000 5.422500
160 1 1 0.0 10.845000 1.807500 5.422500
161 1 1 0.0 14.460000 0.000000 3.615000
162 1 1 0.0 16.267500 1.807500 3.615000
163 1 1 0.0 16.267500 0.000000 5.422500
164 1 1 0.0 14.460000 1.807500 5.422500
165 1 1 0.0 18.075000 0.000000 3.615000
166 1 1 0.0 19.882500 1.807500 3.615000
167 1 1 0.0 19.882500 0.000000 5.422500
168 1 1 0.0 18.075000 1.807500 5.422500
169 1 1 0.0 0.000000 3.615000 3.615000
170 1 1 0.0 1.807500 5.422500 3.615000
171 1 1 0.0 1.807500 3.615000 5.422500
172 1 1 0.0 0.000000 5.422500 5.422500
173 1 1 0.0 3.615000 3.615000 3.615000
174 1 1 0.0 5.422500 5.422500 3.615000
175 1 1 0.0 5.422500 3.615000 5.422500
176 1 1 0.0 3.615000 5.422500 5.422500
177 1 1 0.0 7.230000 3.615000 3.615000
178 1 1 0.0 9.037500 5.422500 3.615000
179 1 1 0.0 9.037500 3.615000 5.422500
180 1 1 0.0 7.230000 5.422500 5.422500
181 1 1 0.0 10.845000 3.615000 3.615000
182 1 1 0.0 12.652500 5.422500 3.615000
183 1 1 0.0 12.652500 3.615000 5.422500
184 1 1 0.0 10.845000 5.422500 5.422500
185 1 1 0.0 14.460000 3.615000 3.615000
186 1 1 0.0 16.267500 5.422500 3.615000
187 1 1 0.0 16.267500 3.615000 5.422500
188 1 1 0.0 14.460000 5.422500 5.422500
189 1 1 0.0 18.075000 3.615000 3.615000
190 1 1 0.0 19.882500 5.422500 3.615000
191 1 1 0.0 19.882500 3.615000 5.422500
192 1 1 0.0 18.075000 5.422500 5.422500
193 1 1 0.0 0.000000 7.230000 3.615000
194 1 1 0.0 1.807500 9.037500 3.615000
195 1 1 0.0 1.807500 7.230000 5.422500
196 1 1 0.0 0.000000 9.037500 5.422500
197 1 1 0.0 3.615000 7.230000 3.615000
198 1 1 0.0 5.422500 9.037500 3.615000
199 1 1 0.0 5.422500 7.230000 5.422500
200 1 1 0.0 3.615000 9.037500 5.422500
201 1 1 0.0 7.230000 7.230000 3.615000
202 1 1 0.0 9.037500 9.037500 3.615000
203 1 1 0.0 9.037500 7.230000 5.422500
204 1 1 0.0 7.230000 9.037500 5.422500
205 1 1 0.0 10.845000 7.230000 3.615000
206 1 1 0.0 12.652500 9.037500 3.615000
207 1 1 0.0 12.652500 7.230000 5.422500
208 1 1 0.0 10.845000 9.037500 5.422500
209 1 1 0.0 14.460000 7.230000 3.615000
210 1 1 0.0 16.267500 9.037500 3.615000
211 1 1 0.0 16.267500 7.230000 5.422500
212 1 1 0.0 14.460000 9.037500 5.422500
213 1 1 0.0 18.075000 7.230000 3.615000
214 1 1 0.0 19.882500 9.037500 3.615000
215 1 1 0.0 19.882500 7.230000 5.422500
216 1 1 0.0 18.075000 9.037500 5.422500
217 1 1 0.0 0.000000 10.845000 3.615000
218 1 1 0.0 1.807500 12.652500 3.615000
219 1 1 0.0 1.807500 10.845000 5.422500
220 1 1 0.0 0.000000 12.652500 5.422500
221 1 1 0.0 3.615000 10.845000 3.615000
222 1 1 0.0 5.422500 12.652500 3.615000
223 1 1 0.0 5.422500 10.845000 5.422500
224 1 1 0.0 3.615000 12.652500 5.422500
225 1 1 0.0 7.230000 10.845000 3.615000
226 1 1 0.0 9.037500 12.652500 3.615000
227 1 1 0.0 9.037500 10.845000 5.422500
228 1 1 0.0 7.230000 12.652500 5.422500
229 1 1 0.0 10.845000 10.845000 3.615000
230 1 1 0.0 12.652500 12.652500 3.615000
231 1 1 0.0 12.652500 10.845000 5.422500
232 1 1 0.0 10.845000 12.652500 5.422500
233 1 1 0.0 14.460000 10.845000 3.615000
234 1 1 0.0 16.267500 12.652500 3.615000
235 1 1 0.0 16.267500 10.845000 5.422500
236 1 1 0.0 14.460000 12.652500 5.422500
237 1 1 0.0 18.075000 10.845000 3.615000
238 1 1 0.0 19.882500 12.652500 3.615000
239 1 1 0.0 19.882500 10.845000 5.422500
240 1 1 0.0 18.075000 12.652500 5.422500
241 1 1 0.0 0.000000 14.460000 3.615000
242 1 1 0.0 1.807500 16.267500 3.615000
243 1 1 0.0 1.807500 14.460000 5.422500
244 1 1 0.0 0.000000 16.267500 5.422500
245 1 1 0.0 3.615000 14.460000 3.615000
246 1 1 0.0 5.422500 16.267500 3.615000
247 1 1 0.0 5.422500 14.460000 5.422500
248 1 1 0.0 3.615000 16.267500 5.422500
249 1 1 0.0 7.230000 14.460000 3.615000
250 1 1 0.0 9.037500 16.267500 3.615000
251 1 1 0.0 9.037500 14.460000 5.422500
252 1 1 0.0 7.230000 16.267500 5.422500
253 1 1 0.0 10.845000 14.460000 3.615000
254 1 1 0.0 12.652500 16.267500 3.615000
255 1 1 0.0 12.652500 14.460000 5.422500
256 1 1 0.0 10.845000 16.267500 5.422500
257 1 1 0.0 14.460000 14.460000 3.615000
258 1 1 0.0 16.267500 16.267500 3.615000
259 1 1 0.0 16.267500 14.460000 5.422500
260 1 1 0.0 14.460000 16.267500 5.422500
261 1 1 0.0 18.075000 14.460000 3.615000
262 1 1 0.0 19.882500 16.267500 3.615000
263 1 1 0.0 19.882500 14.460000 5.422500
264 1 1 0.0 18.075000 16.267500 5.422500
265 1 1 0.0 0.000000 18.075000 3.615000
266 1 1 0.0 1.807500 19.882500 3.615000
267 1 1 0.0 1.807500 18.075000 5.422500
268 1 1 0.0 0.000000 19.882500 5.422500
269 1 1 0.0 3.615000 18.075000 3.615000
270 1 1 0.0 5.422500 19.882500 3.615000
271 1 1 0.0 5.422500 18.075000 5.422500
272 1 1 0.0 3.615000 19.882500 5.422500
273 1 1 0.0 7.230000 18.075000 3.615000
274 1 1 0.0 9.037500 19.882500 3.615000
275 1 1 0.0 9.037500 18.075000 5.422500
276 1 1 0.0 7.230000 19.882500 5.422500
277 1 1 0.0 10.845000 18.075000 3.615000
278 1 1 0.0 12.652500 19.882500 3.615000
279 1 1 0.0 12.652500 18.075000 5.422500
280 1 1 0.0 10.845000 19.882500 5.422500
281 1 1 0.0 14.460000 18.075000 3.615000
282 1 1 0.0 16.267500 19.882500 3.615000
283 1 1 0.0 16.267500 18.075000 5.422500
284 1 1 0.0 14.460000 19.882500 5.422500
285 1 1 0.0 18.075000 18.075000 3.615000
286 1 1 0.0 19.882500 19.882500 3.615000
287 1 1 0.0 19.882500 18.075000 5.422500
288 1 1 0.0 18.075000 19.882500 5.422500
289 1 1 0.0 0.000000 0.000000 7.230000
290 1 1 0.0 1.807500 1.807500 7.230000
291 1 1 0.0 1.807500 0.000000 9.037500
292 1 1 0.0 0.000000 1.807500 9.037500
293 1 1 0.0 3.615000 0.000000 7.230000
294 1 1 0.0 5.422500 1.807500 7.230000
295 1 1 0.0 5.422500 0.000000 9.037500
296 1 1 0.0 3.615000 1.807500 9.037500
297 1 1 0.0 7.230000 0.000000 7.230000
298 1 1 0.0 9.037500 1.807500 7.230000
299 1 1 0.0 9.037500 0.000000 9.037500
300 1 1 0.0 7.230000 1.807500 9.037500
301 1 1 0.0 10.845000 0.000000 7.230000
302 1 1 0.0 12.652500 1.807500 7.230000
303 1 1 0.0 12.652500 0.000000 9.037500
304 1 1 0.0 10.845000 1.807500 9.037500
305 1 1 0.0 14.460000 0.000000 7.230000
306 1 1 0.0 16.267500 1.807500 7.230000
307 1 1 0.0 16.267500 0.000000 9.037500
308 1 1 0.0 14.460000 1.807500 9.037500
309 1 1 0.0 18.075000 0.000000 7.230000
310 1 1 0.0 19.882500 1.807500 7.230000
311 1 1 0.0 19.882500 0.000000 9.037500
312 1 1 0.0 18.075000 1.807500 9.037500
313 1 1 0.0 0.000000 3.615000 7.230000
314 1 1 0.0 1.807500 5.422500 7.230000
315 1 1 0.0 1.807500 3.615000 9.037500
316 1 1 0.0 0.000000 5.422500 9.037500
317 1 1 0.0 3.615000 3.615000 7.230000
318 1 1 0.0 5.422500 5.422500 7.230000
319 1 1 0.0 5.422500 3.615000 9.037500
320 1 1 0.0 3.615000 5.422500 9.037500
321 1 1 0.0 7.230000 3.615000 7.230000
322 1 1 0.0 9.037500 5.422500 7.230000
323 1 1 0.0 9.037500 3.615000 9.037500
324 1 1 0.0 7.230000 5.422500 9.037500
325 1 1 0.0 10.845000 3.615000 7.230000
326 1 1 0.0 12.652500 5.422500 7.230000
327 1 1 0.0 12.652500 3.615000 9.037500
328 1 1 0.0 10.845000 5.422500 9.037500
329 1 1 0.0 14.460000 3.615000 7.230000
330 1 1 0.0 16.267500 5.422500 7.230000
331 1 1 0.0 16.267500 3.615000 9.037500
332 1 1 0.0 14.460000 5.422500 9.037500
333 1 1 0.0 18.075000 3.615000 7.230000
334 1 1 0.0 19.882500 5.422500 7.230000
335 1 1 0.0 19.882500 3.615000 9.037500
336 1 1 0.0 18.075000 5.422500 9.037500
337 1 1 0.0 0.000000 7.230000 7.230000
338 1 1 0.0 1.807500 9.037500 7.230000
339 1 1 0.0 1.807500 7.230000 9.037500
340 1 1 0.0 0.000000 9.037500 9.037500
341 1 1 0.0 3.615000 7.230000 7.230000
342 1 1 0.0 5.422500 9.037500 7.230000
343 1 1 0.0 5.422500 7.230000 9.037500
344 1 1 0.0 3.615000 9.037500 9.037500
345 1 1 0.0 7.230000 7.230000 7.230000
346 1 1 0.0 9.037500 9.037500 7.230000
347 1 1 0.0 9.037500 7.230000 9.037500
348 1 1 0.0 7.230000 9.037500 9.037500
349 1 1 0.0 10.845000 7.230000 7.230000
350 1 1 0.0 12.652500 9.037500 7.230000
351 1 1 0.0 12.652500 7.230000 9.037500
352 1 1 0.0 10.845000 9.037500 9.037500
353 1 1 0.0 14.460000 7.230000 7.230000
354 1 1 0.0 16.267500 9.037500 7.230000
355 1 1 0.0 16.267500 7.230000 9.037500
356 1 1 0.0 14.460000 9.037500 9.037500
357 1 1 0.0 18.075000 7.230000 7.230000
358 1 1 0.0 19.882500 9.037500 7.230000
359 1 1 0.0 19.882500 7.230000 9.037500
360 1 1 0.0 18.075000 9.037500 9.037500
361 1 1 0.0 0.000000 10.845000 7.230000
362 1 1 0.0 1.807500 12.652500 7.230000
363 1 1 0.0 1.807500 10.845000 9.037500
364 1 1 0.0 0.000000 12.652500 9.037500
365 1 1 0.0 3.615000 10.845000 7.230000
366 1 1 0.0 5.422500 12.652500 7.230000
367 1 1 0.0 5.422500 10.845000 9.037500
368 1 1 0.0 3.615000 12.652500 9.037500
369 1 1 0.0 7.230000 10.845000 7.230000
370 1 1 0.0 9.037500 12.652500 7.230000
371 1 1 0.0 9.037500 10.845000 9.037500
372 1 1 0.0 7.230000 12.652500 9.037500
373 1 1 0.0 10.845000 10.845000 7.230000
374 1 1 0.0 12.652500 12.652500 7.230000
375 1 1 0.0 12.652500 10.845000 9.037500
376 1 1 0.0 10.845000 12.652500 9.037500
377 1 1 0.0 14.460000 10.845000 7.230000
378 1 1 0.0 16.267500 12.652500 7.230000
379 1 1 0.0 16.267500 10.845000 9.037500
380 1 1 0.0 14.460000 12.652500 9.037500
381 1 1 0.0 18.075000 10.845000 7.230000
382 1 1 0.0 19.882500 12.652500 7.230000
383 1 1 0.0 19.882500 10.845000 9.037500
384 1 1 0.0 18.075000 12.652500 9.037500
385 1 1 0.0 0.000000 14.460000 7.230000
386 1 1 0.0 1.807500 16.267500 7.230000
387 1 1 0.0 1.807500 14.460000 9.037500
388 1 1 0.0 0.000000 16.267500 9.037500
389 1 1 0.0 3.615000 14.460000 7.230000
390 1 1 0.0 5.422500 16.267500 7.230000
391 1 1 0.0 5.422500 14.460000 9.037500
392 1 1 0.0 3.615000 16.267500 9.037500
393 1 1 0.0 7.230000 14.460000 7.230000
394 1 1 0.0 9.037500 16.267500 7.230000
395 1 1 0.0 9.037500 14.460000 9.037500
396 1 1 0.0 7.230000 16.267500 9.037500
397 1 1 0.0 10.845000 14.460000 7.230000
398 1 1 0.0 12.652500 16.267500 7.230000
399 1 1 0.0 12.652500 14.460000 9.037500
400 1 1 0.0 10.845000 16.267500 9.037500
401 1 1 0.0 14.460000 14.460000 7.230000
402 1 1 0.0 16.267500 16.267500 7.230000
403 1 1 0.0 16.267500 14.460000 9.037500
404 1 1 0.0 14.460000 16.267500 9.037500
405 1 1 0.0 18.075000 14.460000 7.230000
406 1 1 0.0 19.882500 16.267500 7.230000
407 1 1 0.0 19.882500 14.460000 9.037500
408 1 1 0.0 18.075000 16.267500 9.037500
409 1 1 0.0 0.000000 18.075000 7.230000
410 1 1 0.0 1.807500 19.882500 7.230000
411 1 1 0.0 1.807500 18.075000 9.037500
412 1 1 0.0 0.000000 19.882500 9.037500
413 1 1 0.0 3.615000 18.075000 7.230000
414 1 1 0.0 5.422500 19.882500 7.230000
415 1 1 0.0 5.422500 18.075000 9.037500
416 1 1 0.0 3.615000 19.882500 9.037500
417 1 1 0.0 7.230000 18.075000 7.230000
418 1 1 0.0 9.037500 19.882500 7.230000
419 1 1 0.0 9.037500 18.075000 9.037500
420 1 1 0.0 7.230000 19.882500 9.037500
421 1 1 0.0 10.845000 18.075000 7.230000
422 1 1 0.0 12.652500 19.882500 7.230000
423 1 1 0.0 12.652500 18.075000 9.037500
424 1 1 0.0 10.845000 19.882500 9.037500
425 1 1 0.0 14.460000 18.075000 7.230000
426 1 1 0.0 16.267500 19.882500 7.230000
427 1 1 0.0 16.267500 18.075000 9.037500
428 1 1 0.0 14.460000 19.882500 9.037500
429 1 1 0.0 18.075000 18.075000 7.230000
430 1 1 0.0 19.882500 19.882500 7.230000
431 1 1 0.0 19.882500 18.075000 9.037500
432 1 1 0.0 18.075000 19.882500 9.037500
433 1 1 0.0 0.000000 0.000000 10.845000
434 1 1 0.0 1.807500 1.807500 10.845000
435 1 1 0.0 1.807500 0.000000 12.652500
436 1 1 0.0 0.000000 1.807500 12.652500
437 1 1 0.0 3.615000 0.000000 10.845000
438 1 1 0.0 5.422500 1.807500 10.845000
439 1 1 0.0 5.422500 0.000000 12.652500
440 1 1 0.0 3.615000 1.807500 12.652500
441 1 1 0.0 7.230000 0.000000 10.845000
442 1 1 0.0 9.037500 1.807500 10.845000
443 1 1 0.0 9.037500 0.000000 12.652500
444 1 1 0.0 7.230000 1.807500 12.652500
445 1 1 0.0 10.845000 0.000000 10.845000
446 1 1 0.0 12.652500 1.807500 10.845000
447 1 1 0.0 12.652500 0.000000 12.652500
448 1 1 0.0 10.845000 1.807500 12.652500
449 1 1 0.0 14.460000 0.000000 10.845000
450 1 1 0.0 16.267500 1.807500 10.845000
451 1 1 0.0 16.267500 0.000000 12.652500
452 1 1 0.0 14.460000 1.807500 12.652500
453 1 1 0.0 18.075000 0.000000 10.845000
454 1 1 0.0 19.882500 1.807500 10.845000
455 1 1 0.0 19.882500 0.000000 12.652500
456 1 1 0.0 18.075000 1.807500 12.652500
457 1 1 0.0 0.000000 3.615000 10.845000
458 1 1 0.0 1.807500 5.422500 10.845000
459 1 1 0.0 1.807500 3.615000 12.652500
460 1 1 0.0 0.000000 5.422500 12.652500
461 1 1 0.0 3.615000 3.615000 10.845000
462 1 1 0.0 5.422500 5.422500 10.845000
463 1 1 0.0 5.422500 3.615000 12.652500
464 1 1 0.0 3.615000 5.422500 12.652500
465 1 1 0.0 7.230000 3.615000 10.845000
466 1 1 0.0 9.037500 5.422500 10.845000
467 1 1 0.0 9.037500 3.615000 12.652500
468 1 1 0.0 7.230000 5.422500 12.652500
469 1 1 0.0 10.845000 3.615000 10.845000
470 1 1 0.0 12.652500 5.422500 10.845000
471 1 1 0.0 12.652500 3.615000 12.652500
472 1 1 0.0 10.845000 5.422500 12.652500
473 1 1 0.0 14.460000 3.615000 10.845000
474 1 1 0.0 16.267500 5.422500 10.845000
475 1 1 0.0 16.267500 3.615000 12.652500
476 1 1 0.0 14.460000 5.422500 12.652500
477 1 1 0.0 18.075000 3.615000 10.845000
478 1 1 0.0 19.882500 5.422500 10.845000
479 1 1 0.0 19.882500 3.615000 12.652500
480 1 1 0.0 18.075000 5.422500 12.652500
481 1 1 0.0 0.000000 7.230000 10.845000
482 1 1 0.0 1.807500 9.037500 10.845000
483 1 1 0.0 1.807500 7.230000 12.652500
484 1 1 0.0 0.000000 9.037500 12.652500
485 1 1 0.0 3.615000 7.230000 10.845000
486 1 1 0.0 5.422500 9.037500 10.845000
487 1 1 0.0 5.422500 7.230000 12.652500
488 1 1 0.0 3.615000 9.037500 12.652500
489 1 1 0.0 7.230000 7.230000 10.845000
490 1 1 0.0 9.037500 9.037500 10.845000
491 1 1 0.0 9.037500 7.230000 12.652500
492 1 1 0.0 7.230000 9.037500 12.652500
493 1 1 0.0 10.845000 7.230000 10.845000
494 1 1 0.0 12.652500 9.037500 10.845000
495 1 1 0.0 12.652500 7.230000 12.652500
496 1 1 0.0 10.845000 9.037500 12.652500
497 1 1 0.0 14.460000 7.230000 10.845000
498 1 1 0.0 16.267500 9.037500 10.845000
499 1 1 0.0 16.267500 7.230000 12.652500
500 1 1 0.0 14.460000 9.037500 12.652500
501 1 1 0.0 18.075000 7.230000 10.845000
502 1 1 0.0 19.882500 9.037500 10.845000
503 1 1 0.0 19.882500 7.230000 12.652500
504 1 1 0.0 18.075000 9.037500 12.652500
505 1 1 0.0 0.000000 10.845000 10.845000
506 1 1 0.0 1.807500 12.652500 10.845000
507 1 1 0.0 1.807500 10.845000 12.652500
508 1 1 0.0 0.000000 12.652500 12.652500
509 1 1 0.0 3.615000 10.845000 10.845000
510 1 1 0.0 5.422500 12.652500 10.845000
511 1 1 0.0 5.422500 10.845000 12.652500
512 1 1 0.0 3.615000 12.652500 12.652500
513 1 1 0.0 7.230000 10.845000 10.845000
514 1 1 0.0 9.037500 12.652500 10.845000
515 1 1 0.0 9.037500 10.845000 12.652500
516 1 1 0.0 7.230000 12.652500 12.652500
517 1 1 0.0 10.845000 10.845000 10.845000
518 1 1 0.0 12.652500 12.652500 10.845000
519 1 1 0.0 12.652500 10.845000 12.652500
520 1 1 0.0 10.845000 12.652500 12.652500
521 1 1 0.0 14.460000 10.845000 10.845000
522 1 1 0.0 16.267500 12.652500 10.845000
523 1 1 0.0 16.267500 10.845000 12.652500
524 1 1 0.0 14.460000 12.652500 12.652500
525 1 1 0.0 18.075000 10.845000 10.845000
526 1 1 0.0 19.882500 12.652500 10.845000
527 1 1 0.0 19.882500 10.845000 12.652500
528 1 1 0.0 18.075000 12.652500 12.652500
529 1 1 0.0 0.000000 14.460000 10.845000
530 1 1 0.0 1.807500 16.267500 10.845000
531 1 1 0.0 1.807500 14.460000 12.652500
532 1 1 0.0 0.000000 16.267500 12.652500
533 1 1 0.0 3.615000 14.460000 10.845000
534 1 1 0.0 5.422500 16.267500 10.845000
535 1 1 0.0 5.422500 14.460000 12.652500
536 1 1 0.0 3.615000 16.267500 12.652500
537 1 1 0.0 7.230000 14.460000 10.845000
538 1 1 0.0 9.037500 16.267500 10.845000
539 1 1 0.0 9.037500 14.460000 12.652500
540 1 1 0.0 7.230000 16.267500 12.652500
541 1 1 0.0 10.845000 14.460000 10.845000
542 1 1 0.0 12.652500 16.267500 10.845000
543 1 1 0.0 12.652500 14.460000 12.652500
544 1 1 0.0 10.845000 16.267500 12.652500
545 1 1 0.0 14.460000 14.460000 10.845000
546 1 1 0.0 16.267500 16.267500 10.845000
547 1 1 0.0 16.267500 14.460000 12.652500
548 1 1 0.0 14.460000 16.267500 12.652500
549 1 1 0.0 18.075000 14.460000 10.845000
550 1 1 0.0 19.882500 16.267500 10.845000
551 1 1 0.0 19.882500 14.460000 12.652500
552 1 1 0.0 18.075000 16.267500 12.652500
553 1 1 0.0 0.000000 18.075000 10.845000
554 1 1 0.0 1.807500 19.882500 10.845000
555 1 1 0.0 1.807500 18.075000 12.652500
556 1 1 0.0 0.000000 19.882500 12.652500
557 1 1 0.0 3.615000 18.075000 10.845000
558 1 1 0.0 5.422500 19.882500 10.845000
559 1 1 0.0 5.422500 18.075000 12.652500
560 1 1 0.0 3.615000 19.882500 12.652500
561 1 1 0.0 7.230000 18.075000 10.845000
562 1 1 0.0 9.037500 19.882500 10.845000
563 1 1 0.0 9.037500 18.075000 12.652500
564 1 1 0.0 7.230000 19.882500 12.652500
565 1 1 0.0 10.845000 18.075000 10.845000
566 1 1 0.0 12.652500 19.882500 10.845000
567 1 1 0.0 12.652500 18.075000 12.652500
568 1 1 0.0 10.845000 19.882500 12.652500
569 1 1 0.0 14.460000 18.075000 10.845000
570 1 1 0.0 16.267500 19.882500 10.845000
571 1 1 0.0 16.267500 18.075000 12.652500
572 1 1 0.0 14.460000 19.882500 12.652500
573 1 1 0.0 18.075000 18.075000 10.845000
574 1 1 0.0 19.882500 19.882500 10.845000
575 1 1 0.0 19.882500 18.075000 12.652500
576 1 1 0.0 18.075000 19.882500 12.652500
577 1 1 0.0 0.000000 0.000000 14.460000
578 1 1 0.0 1.807500 1.807500 14.460000
579 1 1 0.0 1.807500 0.000000 16.267500
580 1 1 0.0 0.000000 1.807500 16.267500
581 1 1 0.0 3.615000 0.000000 14.460000
582 1 1 0.0 5.422500 1.807500 14.460000
583 1 1 0.0 5.422500 0.000000 16.267500
584 1 1 0.0 3.615000 1.807500 16.267500
585 1 1 0.0 7.230000 0.000000 14.460000
586 1 1 0.0 9.037500 1.807500 14.460000
587 1 1 0.0 9.037500 0.000000 16.267500
588 1 1 0.0 7.230000 1.807500 16.267500
589 1 1 0.0 10.845000 0.000000 14.460000
590 1 1 0.0 12.652500 1.807500 14.460000
591 1 1 0.0 12.652500 0.000000 16.267500
592 1 1 0.0 10.845000 1.807500 16.267500
593 1 1 0.0 14.460000 0.000000 14.460000
594 1 1 0.0 16.267500 1.807500 14.460000
595 1 1 0.0 16.267500 0.000000 16.267500
596 1 1 0.0 14.460000 1.807500 16.267500
597 1 1 0.0 18.075000 0.000000 14.460000
598 1 1 0.0 19.882500 1.807500 14.460000
599 1 1 0.0 19.882500 0.000000 16.267500
600 1 1 0.0 18.075000 1.807500 16.267500
601 1 1 0.0 0.000000 3.615000 14.460000
602 1 1 0.0 1.807500 5.422500 14.460000
603 1 1 0.0 1.807500 3.615000 16.267500
604 1 1 0.0 0.000000 5.422500 16.267500
605 1 1 0.0 3.615000 3.615000 14.460000
606 1 1 0.0 5.422500 5.422500 14.460000
607 1 1 0.0 5.422500 3.615000 16.267500
608 1 1 0.0 3.615000 5.422500 16.267500
609 1 1 0.0 7.230000 3.615000 14.460000
610 1 1 0.0 9.037500 5.422500 14.460000
611 1 1 0.0 9.037500 3.615000 16.267500
612 1 1 0.0 7.230000 5.422500 16.267500
613 1 1 0.0 10.845000 3.615000 14.460000
614 1 1 0.0 12.652500 5.422500 14.460000
615 1 1 0.0 12.652500 3.615000 16.267500
616 1 1 0.0 10.845000 5.422500 16.267500
617 1 1 0.0 14.460000 3.615000 14.460000
618 1 1 0.0 16.267500 5.422500 14.460000
619 1 1 0.0 16.267500 3.615000 16.267500
620 1 1 0.0 14.460000 5.422500 16.267500
621 1 1 0.0 18.075000 3.615000 14.460000
622 1 1 0.0 19.882500 5.422500 14.460000
623 1 1 0.0 19.882500 3.615000 16.267500
624 1 1 0.0 18.075000 5.422500 16.267500
625 1 1 0.0 0.000000 7.230000 14.460000
626 1 1 0.0 1.807500 9.037500 14.460000
627 1 1 0.0 1.807500 7.230000 16.267500
628 1 1 0.0 0.000000 9.037500 16.267500
629 1 1 0.0 3.615000 7.230000 14.460000
630 1 1 0.0 5.422500 9.037500 14.460000
631 1 1 0.0 5.422500 7.230000 16.267500
632 1 1 0.0 3.615000 9.037500 16.267500
633 1 1 0.0 7.230000 7.230000 14.460000
634 1 1 0.0 9.037500 9.037500 14.460000
635 1 1 0.0 9.037500 7.230000 16.267500
636 1 1 0.0 7.230000 9.037500 16.267500
637 1 1 0.0 10.845000 7.230000 14.460000
638 1 1 0.0 12.652500 9.037500 14.460000
639 1 1 0.0 12.652500 7.230000 16.267500
640 1 1 0.0 10.845000 9.037500 16.267500
641 1 1 0.0 14.460000 7.230000 14.460000
642 1 1 0.0 16.267500 9.037500 14.460000
643 1 1 0.0 16.267500 7.230000 16.267500
644 1 1 0.0 14.460000 9.037500 16.267500
645 1 1 0.0 18.075000 7.230000 14.460000
646 1 1 0.0 19.882500 9.037500 14.460000
647 1 1 0.0 19.882500 7.230000 16.267500
648 1 1 0.0 18.075000 9.037500 16.267500
649 1 1 0.0 0.000000 10.845000 14.460000
650 1 1 0.0 1.807500 12.652500 14.460000
651 1 1 0.0 1.807500 10.845000 16.267500
652 1 1 0.0 0.000000 12.652500 16.267500
653 1 1 0.0 3.615000 10.845000 14.460000
654 1 1 0.0 5.422500 12.652500 14.460000
655 1 1 0.0 5.422500 10.845000 16.267500
656 1 1 0.0 3.615000 12.652500 16.267500
657 1 1 0.0 7.230000 10.845000 14.460000
658 1 1 0.0 9.037500 12.652500 14.460000
659 1 1 0.0 9.037500 10.845000 16.267500
660 1 1 0.0 7.230000 12.652500 16.267500
661 1 1 0.0 10.845000 10.845000 14.460000
662 1 1 0.0 12.652500 12.652500 14.460000
663 1 1 0.0 12.652500 10.845000 16.267500
664 1 1 0.0 10.845000 12.652500 16.267500
665 1 1 0.0 14.460000 10.845000 14.460000
666 1 1 0.0 16.267500 12.652500 14.460000
667 1 1 0.0 16.267500 10.845000 16.267500
668 1 1 0.0 14.460000 12.652500 16.267500
669 1 1 0.0 18.075000 10.845000 14.460000
670 1 1 0.0 19.882500 12.652500 14.460000
671 1 1 0.0 19.882500 10.845000 16.267500
672 1 1 0.0 18.075000 12.652500 16.267500
673 1 1 0.0 0.000000 14.460000 14.460000
674 1 1 0.0 1.807500 16.267500 14.460000
675 1 1 0.0 1.807500 14.460000 16.267500
676 1 1 0.0 0.000000 16.267500 16.267500
677 1 1 0.0 3.615000 14.460000 14.460000
678 1 1 0.0 5.422500 16.267500 14.460000
679 1 1 0.0 5.422500 14.460000 16.267500
680 1 1 0.0 3.615000 16.267500 16.267500
681 1 1 0.0 7.230000 14.460000 14.460000
682 1 1 0.0 9.037500 16.267500 14.460000
683 1 1 0.0 9.037500 14.460000 16.267500
684 1 1 0.0 7.230000 16.267500 16.267500
685 1 1 0.0 10.845000 14.460000 14.460000
686 1 1 0.0 12.652500 16.267500 14.460000
687 1 1 0.0 12.652500 14.460000 16.267500
688 1 1 0.0 10.845000 16.267500 16.267500
689 1 1 0.0 14.460000 14.460000 14.460000
690 1 1 0.0 16.267500 16.267500 14.460000
691 1 1 0.0 16.267500 14.460000 16.267500
692 1 1 0.0 14.460000 16.267500 16.267500
693 1 1 0.0 18.075000 14.460000 14.460000
694 1 1 0.0 19.882500 16.267500 14.460000
695 1 1 0.0 19.882500 14.460000 16.267500
696 1 1 0.0 18.075000 16.267500 16.267500
697 1 1 0.0 0.000000 18.075000 14.460000
698 1 1 0.0 1.807500 19.882500 14.460000
699 1 1 0.0 1.807500 18.075000 16.267500
700 1 1 0.0 0.000000 19.882500 16.267500
701 1 1 0.0 3.615000 18.075000 14.460000
702 1 1 0.0 5.422500 19.882500 14.460000
703 1 1 0.0 5.422500 18.075000 16.267500
704 1 1 0.0 3.615000 19.882500 16.267500
705 1 1 0.0 7.230000 18.075000 14.460000
706 1 1 0.0 9.037500 19.882500 14.460000
707 1 1 0.0 9.037500 18.075000 16.267500
708 1 1 0.0 7.230000 19.882500 16.267500
709 1 1 0.0 10.845000 18.075000 14.460000
710 1 1 0.0 12.652500 19.882500 14.460000
711 1 1 0.0 12.652500 18.075000 16.267500
712 1 1 0.0 10.845000 19.882500 16.267500
713 1 1 0.0 14.460000 18.075000 14.460000
714 1 1 0.0 16.267500 19.882500 14.460000
715 1 1 0.0 16.267500 18.075000 16.267500
716 1 1 0.0 14.460000 19.882500 16.267500
717 1 1 0.0 18.075000 18.075000 14.460000
718 1 1 0.0 19.882500 19.882500 14.460000
719 1 1 0.0 19.882500 18.075000 16.267500
720 1 1 0.0 18.075000 19.882500 16.267500
721 1 1 0.0 0.000000 0.000000 18.075000
722 1 1 0.0 1.807500 1.807500 18.075000
723 1 1 0.0 1.807500 0.000000 19.882500
724 1 1 0.0 0.000000 1.807500 19.882500
725 1 1 0.0 3.615000 0.000000 18.075000
726 1 1 0.0 5.422500 1.807500 18.075000
727 1 1 0.0 5.422500 0.000000 19.882500
728 1 1 0.0 3.615000 1.807500 19.882500
729 1 1 0.0 7.230000 0.000000 18.075000
730 1 1 0.0 9.037500 1.807500 18.075000
731 1 1 0.0 9.037500 0.000000 19.882500
732 1 1 0.0 7.230000 1.807500 19.882500
733 1 1 0.0 10.845000 0.000000 18.075000
734 1 1 0.0 12.652500 1.807500 18.075000
735 1 1 0.0 12.652500 0.000000 19.882500
736 1 1 0.0 10.845000 1.807500 19.882500
737 1 1 0.0 14.460000 0.000000 18.075000
738 1 1 0.0 16.267500 1.807500 18.075000
739 1 1 0.0 16.267500 0.000000 19.882500
740 1 1 0.0 14.460000 1.807500 19.882500